 DBCSR| CPU Multiplication driver                                           BLAS (U)
 DBCSR| Multrec recursion limit                                              512 (U)
 DBCSR| Multiplication stack size                                           1000 (D)
 DBCSR| Maximum elements for images                                    UNLIMITED (U)
 DBCSR| Multiplicative factor virtual images                                   1 (U)
 DBCSR| Use multiplication densification                                       T (D)
 DBCSR| Multiplication size stacks                                             3 (U)
 DBCSR| Use memory pool for CPU allocation                                     F (U)
 DBCSR| Number of 3D layers                                               SINGLE (U)
 DBCSR| Use MPI memory allocation                                              F (U)
 DBCSR| Use RMA algorithm                                                      F (U)
 DBCSR| Use Communication thread                                               T (U)
 DBCSR| Communication thread load                                             75 (D)
 DBCSR| MPI: My process id                                                     0
 DBCSR| MPI: Number of processes                                             216
 DBCSR| OMP: Current number of threads                                         4
 DBCSR| OMP: Max number of threads                                             4
 DBCSR| Split modifier for TAS multiplication algorithm                  1.0E+00 (U)


  **** **** ******  **  PROGRAM STARTED AT               2025-03-30 18:35:14.233
 ***** ** ***  *** **   PROGRAM STARTED ON                          i01r09c05s02
 **    ****   ******    PROGRAM STARTED BY                               di38fab
 ***** **    ** ** **   PROGRAM PROCESS ID                               1356978
  **** **  *******  **  PROGRAM STARTED IN /hppfs/scratch/04/di38fab/07_MOL_non_
                                           aug/05_MOL_non_aug/05_MOL/aUKBqsEOTmq
                                           69kFe5R_nOg/5k_set_final_qzvp/GEBTUC0
                                           1/cc-pVDZ/GW+BSE

 CP2K| version string:                 CP2K version 2025.1 (Development Version)
 CP2K| source code revision number:                                  git:d2e611a
 CP2K| cp2kflags: omp libint fftw3 libxc parallel scalapack max_contr=4         
 CP2K| is freely available from                            https://www.cp2k.org/
 CP2K| Program compiled at                       Thu 06 Mar 2025 05:09:20 PM CET
 CP2K| Program compiled on                                               login02
 CP2K| Program compiled for                                        Supermuc-foss
 CP2K| Data directory path                  /hppfs/work/pn36zo/di38fab/cp2k/data
 CP2K| Input file name                                                    GW.inp

 GLOBAL| Force Environment number                                              1
 GLOBAL| Basis set file name            /hppfs/scratch/04/di38fab/04_TMD/BASIS_A
 GLOBAL| Potential file name            /hppfs/work/pn36zo/di38fab/cp2k/data/ALL
 GLOBAL| MM Potential file name                                     MM_POTENTIAL
 GLOBAL| Coordinate file name                                      __STD_INPUT__
 GLOBAL| Method name                                                        CP2K
 GLOBAL| Project name                                                       MoS2
 GLOBAL| Run type                                                         ENERGY
 GLOBAL| FFT library                                                       FFTW3
 GLOBAL| Diagonalization library                                       ScaLAPACK
 GLOBAL| DGEMM library                                                      BLAS
 GLOBAL| Orthonormality check for eigenvectors                          DISABLED
 GLOBAL| Matrix multiplication library                                 ScaLAPACK
 GLOBAL| All-to-all communication in single precision                          F
 GLOBAL| FFTs using library dependent lengths                                  F
 GLOBAL| Grid backend                                                       AUTO
 GLOBAL| Global print level                                               MEDIUM
 GLOBAL| MPI I/O enabled                                                       T
 GLOBAL| Total number of message passing processes                           216
 GLOBAL| Number of threads for this process                                    4
 GLOBAL| This output is from process                                           0
 GLOBAL| OpenMP stack size per thread (OMP_STACKSIZE)                    default
 GLOBAL| CPU model name             Intel(R) Xeon(R) Platinum 8174 CPU @ 3.10GHz

 MEMORY| system memory details [Kb]
 MEMORY|                        rank 0           min           max       average
 MEMORY| MemTotal             98436664      98436620      98436736      98436669
 MEMORY| MemFree              84138884      83611492      84323888      83990813
 MEMORY| Buffers                     0             0             0             0
 MEMORY| Cached                2479960       2394740       2622176       2456596
 MEMORY| Slab                  1229716       1211572       1276168       1245770
 MEMORY| SReclaimable           278224        264460        281804        274150
 MEMORY| MemLikelyFree        86897068      86354796      86994952      86721559


 *** Fundamental physical constants (SI units) ***

 *** Literature: B. J. Mohr and B. N. Taylor,
 ***             CODATA recommended values of the fundamental physical
 ***             constants: 2006, Web Version 5.1
 ***             http://physics.nist.gov/constants

 Speed of light in vacuum [m/s]                             2.99792458000000E+08
 Magnetic constant or permeability of vacuum [N/A**2]       1.25663706143592E-06
 Electric constant or permittivity of vacuum [F/m]          8.85418781762039E-12
 Planck constant (h) [J*s]                                  6.62606896000000E-34
 Planck constant (h-bar) [J*s]                              1.05457162825177E-34
 Elementary charge [C]                                      1.60217648700000E-19
 Electron mass [kg]                                         9.10938215000000E-31
 Electron g factor [ ]                                     -2.00231930436220E+00
 Proton mass [kg]                                           1.67262163700000E-27
 Fine-structure constant                                    7.29735253760000E-03
 Rydberg constant [1/m]                                     1.09737315685270E+07
 Avogadro constant [1/mol]                                  6.02214179000000E+23
 Boltzmann constant [J/K]                                   1.38065040000000E-23
 Atomic mass unit [kg]                                      1.66053878200000E-27
 Bohr radius [m]                                            5.29177208590000E-11

 *** Conversion factors ***

 [u] -> [a.u.]                                              1.82288848426455E+03
 [Angstrom] -> [Bohr] = [a.u.]                              1.88972613288564E+00
 [a.u.] = [Bohr] -> [Angstrom]                              5.29177208590000E-01
 [a.u.] -> [s]                                              2.41888432650478E-17
 [a.u.] -> [fs]                                             2.41888432650478E-02
 [a.u.] -> [J]                                              4.35974393937059E-18
 [a.u.] -> [N]                                              8.23872205491840E-08
 [a.u.] -> [K]                                              3.15774647902944E+05
 [a.u.] -> [kJ/mol]                                         2.62549961709828E+03
 [a.u.] -> [kcal/mol]                                       6.27509468713739E+02
 [a.u.] -> [Pa]                                             2.94210107994716E+13
 [a.u.] -> [bar]                                            2.94210107994716E+08
 [a.u.] -> [atm]                                            2.90362800883016E+08
 [a.u.] -> [eV]                                             2.72113838565563E+01
 [a.u.] -> [Hz]                                             6.57968392072181E+15
 [a.u.] -> [1/cm] (wave numbers)                            2.19474631370540E+05
 [a.u./Bohr**2] -> [1/cm]                                   5.14048714338585E+03
 

 CELL_TOP| Volume [angstrom^3]:                                     27000.000000
 CELL_TOP| Vector a [angstrom    30.000     0.000     0.000   |a| =    30.000000
 CELL_TOP| Vector b [angstrom     0.000    30.000     0.000   |b| =    30.000000
 CELL_TOP| Vector c [angstrom     0.000     0.000    30.000   |c| =    30.000000
 CELL_TOP| Angle (b,c), alpha [degree]:                                90.000000
 CELL_TOP| Angle (a,c), beta  [degree]:                                90.000000
 CELL_TOP| Angle (a,b), gamma [degree]:                                90.000000
 CELL_TOP| Numerically orthorhombic:                                         YES
 CELL_TOP| Periodicity                                                      NONE

 GENERATE|  Preliminary Number of Bonds generated:                             0
 GENERATE|  Achieved consistency in connectivity generation.

 CELL| Volume [angstrom^3]:                                         27000.000000
 CELL| Vector a [angstrom]:      30.000     0.000     0.000   |a| =    30.000000
 CELL| Vector b [angstrom]:       0.000    30.000     0.000   |b| =    30.000000
 CELL| Vector c [angstrom]:       0.000     0.000    30.000   |c| =    30.000000
 CELL| Angle (b,c), alpha [degree]:                                    90.000000
 CELL| Angle (a,c), beta  [degree]:                                    90.000000
 CELL| Angle (a,b), gamma [degree]:                                    90.000000
 CELL| Numerically orthorhombic:                                             YES
 CELL| Periodicity                                                          NONE

 CELL_REF| Volume [angstrom^3]:                                     27000.000000
 CELL_REF| Vector a [angstrom    30.000     0.000     0.000   |a| =    30.000000
 CELL_REF| Vector b [angstrom     0.000    30.000     0.000   |b| =    30.000000
 CELL_REF| Vector c [angstrom     0.000     0.000    30.000   |c| =    30.000000
 CELL_REF| Angle (b,c), alpha [degree]:                                90.000000
 CELL_REF| Angle (a,c), beta  [degree]:                                90.000000
 CELL_REF| Angle (a,b), gamma [degree]:                                90.000000
 CELL_REF| Numerically orthorhombic:                                         YES
 CELL_REF| Periodicity                                                      NONE

 *******************************************************************************
 *******************************************************************************
 **                                                                           **
 **     #####                         ##              ##                      **
 **    ##   ##            ##          ##              ##                      **
 **   ##     ##                       ##            ######                    **
 **   ##     ##  ##   ##  ##   #####  ##  ##   ####   ##    #####    #####    **
 **   ##     ##  ##   ##  ##  ##      ## ##   ##      ##   ##   ##  ##   ##   **
 **   ##  ## ##  ##   ##  ##  ##      ####     ###    ##   ######   ######    **
 **    ##  ###   ##   ##  ##  ##      ## ##      ##   ##   ##       ##        **
 **     #######   #####   ##   #####  ##  ##  ####    ##    #####   ##        **
 **           ##                                                    ##        **
 **                                                                           **
 **                                                ... make the atoms dance   **
 **                                                                           **
 **            Copyright (C) by CP2K developers group (2000-2025)             **
 **                      J. Chem. Phys. 152, 194103 (2020)                    **
 **                                                                           **
 *******************************************************************************

 DFT| Spin restricted Kohn-Sham (RKS) calculation                            RKS
 DFT| Multiplicity                                                             1
 DFT| Number of spin states                                                    1
 DFT| Charge                                                                   0
 DFT| Self-interaction correction (SIC)                                       NO
 DFT| Cutoffs: density                                              1.000000E-10
 DFT|          gradient                                             1.000000E-10
 DFT|          tau                                                  1.000000E-10
 DFT|          cutoff_smoothing_range                               0.000000E+00
 DFT| XC density smoothing                                                  NONE
 DFT| XC derivatives                                                          PW

 FUNCTIONAL| PBE:
 FUNCTIONAL| J.P.Perdew, K.Burke, M.Ernzerhof, Phys. Rev. Letter, vol. 77, n 18,
 FUNCTIONAL|  pp. 3865-3868, (1996)sx=0.750sc=1.000{spin unpolarized}           


 QS| Method:                                                                GAPW
 QS| Density plane wave grid type                        NON-SPHERICAL FULLSPACE
 QS| Number of grid levels:                                                    4
 QS| Density cutoff [a.u.]:                                                250.0
 QS| Multi grid cutoff [a.u.]: 1) grid level                               250.0
 QS|                           2) grid level                                83.3
 QS|                           3) grid level                                27.8
 QS|                           4) grid level                                 9.3
 QS| Grid level progression factor:                                          3.0
 QS| Relative density cutoff [a.u.]:                                        50.0
 QS| Interaction thresholds: eps_pgf_orb:                                1.0E-12
 QS|                         eps_filter_matrix:                          0.0E+00
 QS|                         eps_core_charge:                            1.0E-14
 QS|                         eps_rho_gspace:                             1.0E-12
 QS|                         eps_rho_rspace:                             1.0E-12
 QS|                         eps_gvg_rspace:                             1.0E-06
 QS|                         eps_ppl:                                    1.0E-02
 QS|                         eps_ppnl:                                   1.0E-08
 QS| GAPW|      One center basis from orbital basis primitives
 QS| GAPW|                   eps_fit:                                    1.0E-04
 QS| GAPW|                   eps_iso:                                    1.0E-12
 QS| GAPW|                   eps_svd:                                    1.0E-08
 QS| GAPW|                   eps_cpc:                                    1.0E-12
 QS| GAPW|   atom-r-grid: quadrature:                                     GC_LOG
 QS| GAPW|      atom-s-grid:  max l :                                          4
 QS| GAPW|      max_l_rho0 :                                                   2


 ATOMIC KIND INFORMATION

  1. Atomic kind: O                                     Number of atoms:       1

     Orbital Basis Set                                                   cc-pVDZ

       Number of orbital shell sets:                                           3
       Number of orbital shells:                                               6
       Number of primitive Cartesian functions:                               14
       Number of Cartesian basis functions:                                   15
       Number of spherical basis functions:                                   14
       Norm type:                                                              2

       Normalised Cartesian orbitals:

                        Set   Shell   Orbital            Exponent    Coefficient

                          1       1    1px              17.700000       2.226162
                                                         3.854000       1.761976
                                                         1.046000       0.767079
                                                         0.275300       0.130905
                          1       1    1py              17.700000       2.226162
                                                         3.854000       1.761976
                                                         1.046000       0.767079
                                                         0.275300       0.130905
                          1       1    1pz              17.700000       2.226162
                                                         3.854000       1.761976
                                                         1.046000       0.767079
                                                         0.275300       0.130905

                          1       2    2px              17.700000       0.000000
                                                         3.854000       0.000000
                                                         1.046000       0.000000
                                                         0.275300       0.284248
                          1       2    2py              17.700000       0.000000
                                                         3.854000       0.000000
                                                         1.046000       0.000000
                                                         0.275300       0.284248
                          1       2    2pz              17.700000       0.000000
                                                         3.854000       0.000000
                                                         1.046000       0.000000
                                                         0.275300       0.284248

                          2       1    1s            11720.000000       0.569986
                                                      1759.000000       1.058881
                                                       400.800000       1.777168
                                                       113.700000       2.600710
                                                        37.030000       3.028357
                                                        13.270000       2.223504
                                                         5.025000       0.648119
                                                         1.013000       0.011124
                                                         0.302300      -0.000751

                          2       2    2s            11720.000000      -0.128448
                                                      1759.000000      -0.244491
                                                       400.800000      -0.400097
                                                       113.700000      -0.638166
                                                        37.030000      -0.758785
                                                        13.270000      -0.819649
                                                         5.025000      -0.279757
                                                         1.013000       0.401106
                                                         0.302300       0.166422

                          2       3    3s            11720.000000       0.000000
                                                      1759.000000       0.000000
                                                       400.800000       0.000000
                                                       113.700000       0.000000
                                                        37.030000       0.000000
                                                        13.270000       0.000000
                                                         5.025000       0.000000
                                                         1.013000       0.000000
                                                         0.302300       0.290562

                          3       1    1dx2              1.185000       2.215218
                          3       1    1dxy              1.185000       3.836871
                          3       1    1dxz              1.185000       3.836871
                          3       1    1dy2              1.185000       2.215218
                          3       1    1dyz              1.185000       3.836871
                          3       1    1dz2              1.185000       2.215218

     RI Auxiliary Basis Set                                        cc-pVDZ-RIFIT

       Number of orbital shell sets:                                          18
       Number of orbital shells:                                              18
       Number of primitive Cartesian functions:                               18
       Number of Cartesian basis functions:                                   66
       Number of spherical basis functions:                                   56
       Norm type:                                                              2

       Normalised Cartesian orbitals:

                        Set   Shell   Orbital            Exponent    Coefficient

                          1       1    1s                0.421376       0.372746

                          2       1    1dx2              0.592201       0.658007
                          2       1    1dxy              0.592201       1.139701
                          2       1    1dxz              0.592201       1.139701
                          2       1    1dy2              0.592201       0.658007
                          2       1    1dyz              0.592201       1.139701
                          2       1    1dz2              0.592201       0.658007

                          3       1    1px               0.612763       0.772780
                          3       1    1py               0.612763       0.772780
                          3       1    1pz               0.612763       0.772780

                          4       1    1s                0.905061       0.661330

                          5       1    1s                1.396380       0.915509

                          6       1    1px               1.403870       2.178205
                          6       1    1py               1.403870       2.178205
                          6       1    1pz               1.403870       2.178205

                          7       1    1fx3              1.790210       5.457433
                          7       1    1fx2y             1.790210      12.203191
                          7       1    1fx2z             1.790210      12.203191
                          7       1    1fxy2             1.790210      12.203191
                          7       1    1fxyz             1.790210      21.136547
                          7       1    1fxz2             1.790210      12.203191
                          7       1    1fy3              1.790210       5.457433
                          7       1    1fy2z             1.790210      12.203191
                          7       1    1fyz2             1.790210      12.203191
                          7       1    1fz3              1.790210       5.457433

                          8       1    1dx2              1.812210       4.658803
                          8       1    1dxy              1.812210       8.069284
                          8       1    1dxz              1.812210       8.069284
                          8       1    1dy2              1.812210       4.658803
                          8       1    1dyz              1.812210       8.069284
                          8       1    1dz2              1.812210       4.658803

                          9       1    1s                2.939600       1.600023

                         10       1    1px               3.205940       6.114829
                         10       1    1py               3.205940       6.114829
                         10       1    1pz               3.205940       6.114829

                         11       1    1fx3              4.221940      37.614611
                         11       1    1fx2y             4.221940      84.108828
                         11       1    1fx2z             4.221940      84.108828
                         11       1    1fxy2             4.221940      84.108828
                         11       1    1fxyz             4.221940     145.680763
                         11       1    1fxz2             4.221940      84.108828
                         11       1    1fy3              4.221940      37.614611
                         11       1    1fy2z             4.221940      84.108828
                         11       1    1fyz2             4.221940      84.108828
                         11       1    1fz3              4.221940      37.614611

                         12       1    1dx2              4.520870      23.070021
                         12       1    1dxy              4.520870      39.958448
                         12       1    1dxz              4.520870      39.958448
                         12       1    1dy2              4.520870      23.070021
                         12       1    1dyz              4.520870      39.958448
                         12       1    1dz2              4.520870      23.070021

                         13       1    1s                9.551480       3.872247

                         14       1    1px              10.881700      28.171568
                         14       1    1py              10.881700      28.171568
                         14       1    1pz              10.881700      28.171568

                         15       1    1dx2             15.251100     193.725371
                         15       1    1dxy             15.251100     335.542185
                         15       1    1dxz             15.251100     335.542185
                         15       1    1dy2             15.251100     193.725371
                         15       1    1dyz             15.251100     335.542185
                         15       1    1dz2             15.251100     193.725371

                         16       1    1s               25.578000       8.106064

                         17       1    1px              36.129200     126.259196
                         17       1    1py              36.129200     126.259196
                         17       1    1pz              36.129200     126.259196

                         18       1    1s              109.461000      24.118742

       Atomic covalent radius [Angstrom]:                                  0.730

       Atomic van der Waals radius [Angstrom]:                             1.520

     The atoms of this atomic kind are PAW atoms (GAPW):
       Hard Gaussian function radius:                                      1.512
       Rho0 radius:                                                        1.512
       Maximum GTO radius used for PAW projector construction:            24.566

     GAPW Soft Basis Set                                            cc-pVDZ_soft

       Number of orbital shell sets:                                           3
       Number of orbital shells:                                               6
       Number of primitive Cartesian functions:                                6
       Number of Cartesian basis functions:                                   15
       Number of spherical basis functions:                                   14
       Norm type:                                                              2

       Normalised Cartesian orbitals:

                        Set   Shell   Orbital            Exponent    Coefficient

                          1       1    1px               3.854000       1.761976
                                                         1.046000       0.767079
                                                         0.275300       0.130905
                          1       1    1py               3.854000       1.761976
                                                         1.046000       0.767079
                                                         0.275300       0.130905
                          1       1    1pz               3.854000       1.761976
                                                         1.046000       0.767079
                                                         0.275300       0.130905

                          1       2    2px               3.854000       0.000000
                                                         1.046000       0.000000
                                                         0.275300       0.284248
                          1       2    2py               3.854000       0.000000
                                                         1.046000       0.000000
                                                         0.275300       0.284248
                          1       2    2pz               3.854000       0.000000
                                                         1.046000       0.000000
                                                         0.275300       0.284248

                          2       1    1s                1.013000       0.011124
                                                         0.302300      -0.000751

                          2       2    2s                1.013000       0.401106
                                                         0.302300       0.166422

                          2       3    3s                1.013000       0.000000
                                                         0.302300       0.290562

                          3       1    1dx2              1.185000       2.215218
                          3       1    1dxy              1.185000       3.836871
                          3       1    1dxz              1.185000       3.836871
                          3       1    1dy2              1.185000       2.215218
                          3       1    1dyz              1.185000       3.836871
                          3       1    1dz2              1.185000       2.215218

     AE Potential information for                                            ALL

       Description:                                       All-electron potential
                                          Krack, Parrinello, PCCP 2, 2105 (2000)

       Gaussian exponent of the core charge distribution:               8.154466
       Electronic configuration (s p d ...):                           4   4   0

  2. Atomic kind: N                                     Number of atoms:       4

     Orbital Basis Set                                                   cc-pVDZ

       Number of orbital shell sets:                                           3
       Number of orbital shells:                                               6
       Number of primitive Cartesian functions:                               14
       Number of Cartesian basis functions:                                   15
       Number of spherical basis functions:                                   14
       Norm type:                                                              2

       Normalised Cartesian orbitals:

                        Set   Shell   Orbital            Exponent    Coefficient

                          1       1    1px              13.550000       1.479258
                                                         2.917000       1.180072
                                                         0.797300       0.548036
                                                         0.218500       0.098423
                          1       1    1py              13.550000       1.479258
                                                         2.917000       1.180072
                                                         0.797300       0.548036
                                                         0.218500       0.098423
                          1       1    1pz              13.550000       1.479258
                                                         2.917000       1.180072
                                                         0.797300       0.548036
                                                         0.218500       0.098423

                          1       2    2px              13.550000       0.000000
                                                         2.917000       0.000000
                                                         0.797300       0.000000
                                                         0.218500       0.212939
                          1       2    2py              13.550000       0.000000
                                                         2.917000       0.000000
                                                         0.797300       0.000000
                                                         0.218500       0.212939
                          1       2    2pz              13.550000       0.000000
                                                         2.917000       0.000000
                                                         0.797300       0.000000
                                                         0.218500       0.212939

                          2       1    1s             9046.000000       0.462754
                                                      1357.000000       0.858723
                                                       309.300000       1.440591
                                                        87.730000       2.108533
                                                        28.560000       2.454153
                                                        10.210000       1.825915
                                                         3.838000       0.543758
                                                         0.746600       0.008838
                                                         0.224800      -0.000666

                          2       2    2s             9046.000000      -0.101145
                                                      1357.000000      -0.192492
                                                       309.300000      -0.314968
                                                        87.730000      -0.501437
                                                        28.560000      -0.593976
                                                        10.210000      -0.643503
                                                         3.838000      -0.238093
                                                         0.746600       0.314268
                                                         0.224800       0.134678

                          2       3    3s             9046.000000       0.000000
                                                      1357.000000       0.000000
                                                       309.300000       0.000000
                                                        87.730000       0.000000
                                                        28.560000       0.000000
                                                        10.210000       0.000000
                                                         3.838000       0.000000
                                                         0.746600       0.000000
                                                         0.224800       0.232679

                          3       1    1dx2              0.817000       1.155575
                          3       1    1dxy              0.817000       2.001514
                          3       1    1dxz              0.817000       2.001514
                          3       1    1dy2              0.817000       1.155575
                          3       1    1dyz              0.817000       2.001514
                          3       1    1dz2              0.817000       1.155575

     RI Auxiliary Basis Set                                        cc-pVDZ-RIFIT

       Number of orbital shell sets:                                          18
       Number of orbital shells:                                              18
       Number of primitive Cartesian functions:                               18
       Number of Cartesian basis functions:                                   66
       Number of spherical basis functions:                                   56
       Norm type:                                                              2

       Normalised Cartesian orbitals:

                        Set   Shell   Orbital            Exponent    Coefficient

                          1       1    1s                0.327261       0.308376

                          2       1    1px               0.461104       0.541613
                          2       1    1py               0.461104       0.541613
                          2       1    1pz               0.461104       0.541613

                          3       1    1dx2              0.477850       0.452033
                          3       1    1dxy              0.477850       0.782943
                          3       1    1dxz              0.477850       0.782943
                          3       1    1dy2              0.477850       0.452033
                          3       1    1dyz              0.477850       0.782943
                          3       1    1dz2              0.477850       0.452033

                          4       1    1s                0.723539       0.559122

                          5       1    1px               1.094610       1.595932
                          5       1    1py               1.094610       1.595932
                          5       1    1pz               1.094610       1.595932

                          6       1    1s                1.123240       0.777615

                          7       1    1dx2              1.285370       2.553929
                          7       1    1dxy              1.285370       4.423534
                          7       1    1dxz              1.285370       4.423534
                          7       1    1dy2              1.285370       2.553929
                          7       1    1dyz              1.285370       4.423534
                          7       1    1dz2              1.285370       2.553929

                          8       1    1fx3              1.334730       2.818965
                          8       1    1fx2y             1.334730       6.303397
                          8       1    1fx2z             1.334730       6.303397
                          8       1    1fxy2             1.334730       6.303397
                          8       1    1fxyz             1.334730      10.917804
                          8       1    1fxz2             1.334730       6.303397
                          8       1    1fy3              1.334730       2.818965
                          8       1    1fy2z             1.334730       6.303397
                          8       1    1fyz2             1.334730       6.303397
                          8       1    1fz3              1.334730       2.818965

                          9       1    1s                2.344260       1.350251

                         10       1    1px               2.533640       4.556393
                         10       1    1py               2.533640       4.556393
                         10       1    1pz               2.533640       4.556393

                         11       1    1fx3              3.401180      23.127095
                         11       1    1fx2y             3.401180      51.713757
                         11       1    1fx2z             3.401180      51.713757
                         11       1    1fxy2             3.401180      51.713757
                         11       1    1fxyz             3.401180      89.570854
                         11       1    1fxz2             3.401180      51.713757
                         11       1    1fy3              3.401180      23.127095
                         11       1    1fy2z             3.401180      51.713757
                         11       1    1fyz2             3.401180      51.713757
                         11       1    1fz3              3.401180      23.127095

                         12       1    1dx2              3.428160      14.215638
                         12       1    1dxy              3.428160      24.622207
                         12       1    1dxz              3.428160      24.622207
                         12       1    1dy2              3.428160      14.215638
                         12       1    1dyz              3.428160      24.622207
                         12       1    1dz2              3.428160      14.215638

                         13       1    1s                7.624360       3.270112

                         14       1    1px               8.552990      20.849111
                         14       1    1py               8.552990      20.849111
                         14       1    1pz               8.552990      20.849111

                         15       1    1dx2             12.327800     133.493224
                         15       1    1dxy             12.327800     231.217046
                         15       1    1dxz             12.327800     231.217046
                         15       1    1dy2             12.327800     133.493224
                         15       1    1dyz             12.327800     231.217046
                         15       1    1dz2             12.327800     133.493224

                         16       1    1s               20.467900       6.858278

                         17       1    1px              29.237300      96.908455
                         17       1    1py              29.237300      96.908455
                         17       1    1pz              29.237300      96.908455

                         18       1    1s               87.686400      20.422517

       Atomic covalent radius [Angstrom]:                                  0.750

       Atomic van der Waals radius [Angstrom]:                             1.550

     The atoms of this atomic kind are PAW atoms (GAPW):
       Hard Gaussian function radius:                                      1.512
       Rho0 radius:                                                        1.512
       Maximum GTO radius used for PAW projector construction:            24.566

     GAPW Soft Basis Set                                            cc-pVDZ_soft

       Number of orbital shell sets:                                           3
       Number of orbital shells:                                               6
       Number of primitive Cartesian functions:                                7
       Number of Cartesian basis functions:                                   15
       Number of spherical basis functions:                                   14
       Norm type:                                                              2

       Normalised Cartesian orbitals:

                        Set   Shell   Orbital            Exponent    Coefficient

                          1       1    1px               2.917000       1.180072
                                                         0.797300       0.548036
                                                         0.218500       0.098423
                          1       1    1py               2.917000       1.180072
                                                         0.797300       0.548036
                                                         0.218500       0.098423
                          1       1    1pz               2.917000       1.180072
                                                         0.797300       0.548036
                                                         0.218500       0.098423

                          1       2    2px               2.917000       0.000000
                                                         0.797300       0.000000
                                                         0.218500       0.212939
                          1       2    2py               2.917000       0.000000
                                                         0.797300       0.000000
                                                         0.218500       0.212939
                          1       2    2pz               2.917000       0.000000
                                                         0.797300       0.000000
                                                         0.218500       0.212939

                          2       1    1s                3.838000       0.543758
                                                         0.746600       0.008838
                                                         0.224800      -0.000666

                          2       2    2s                3.838000      -0.238093
                                                         0.746600       0.314268
                                                         0.224800       0.134678

                          2       3    3s                3.838000       0.000000
                                                         0.746600       0.000000
                                                         0.224800       0.232679

                          3       1    1dx2              0.817000       1.155575
                          3       1    1dxy              0.817000       2.001514
                          3       1    1dxz              0.817000       2.001514
                          3       1    1dy2              0.817000       1.155575
                          3       1    1dyz              0.817000       2.001514
                          3       1    1dz2              0.817000       1.155575

     AE Potential information for                                            ALL

       Description:                                       All-electron potential
                                          Krack, Parrinello, PCCP 2, 2105 (2000)

       Gaussian exponent of the core charge distribution:               5.979100
       Electronic configuration (s p d ...):                           4   3   0

  3. Atomic kind: C                                     Number of atoms:       5

     Orbital Basis Set                                                   cc-pVDZ

       Number of orbital shell sets:                                           3
       Number of orbital shells:                                               6
       Number of primitive Cartesian functions:                               14
       Number of Cartesian basis functions:                                   15
       Number of spherical basis functions:                                   14
       Norm type:                                                              2

       Normalised Cartesian orbitals:

                        Set   Shell   Orbital            Exponent    Coefficient

                          1       1    1px               9.439000       0.898722
                                                         2.002000       0.711071
                                                         0.545600       0.339917
                                                         0.151700       0.063270
                          1       1    1py               9.439000       0.898722
                                                         2.002000       0.711071
                                                         0.545600       0.339917
                                                         0.151700       0.063270
                          1       1    1pz               9.439000       0.898722
                                                         2.002000       0.711071
                                                         0.545600       0.339917
                                                         0.151700       0.063270

                          1       2    2px               9.439000       0.000000
                                                         2.002000       0.000000
                                                         0.545600       0.000000
                                                         0.151700       0.134950
                          1       2    2py               9.439000       0.000000
                                                         2.002000       0.000000
                                                         0.545600       0.000000
                                                         0.151700       0.134950
                          1       2    2pz               9.439000       0.000000
                                                         2.002000       0.000000
                                                         0.545600       0.000000
                                                         0.151700       0.134950

                          2       1    1s             6665.000000       0.363803
                                                      1000.000000       0.675392
                                                       228.000000       1.132301
                                                        64.710000       1.654004
                                                        21.060000       1.924978
                                                         7.495000       1.448149
                                                         2.797000       0.439427
                                                         0.521500       0.006650
                                                         0.159600      -0.000574

                          2       2    2s             6665.000000      -0.076756
                                                      1000.000000      -0.146257
                                                       228.000000      -0.239407
                                                        64.710000      -0.379069
                                                        21.060000      -0.448104
                                                         7.495000      -0.484201
                                                         2.797000      -0.196168
                                                         0.521500       0.238162
                                                         0.159600       0.104468

                          2       3    3s             6665.000000       0.000000
                                                      1000.000000       0.000000
                                                       228.000000       0.000000
                                                        64.710000       0.000000
                                                        21.060000       0.000000
                                                         7.495000       0.000000
                                                         2.797000       0.000000
                                                         0.521500       0.000000
                                                         0.159600       0.179964

                          3       1    1dx2              0.550000       0.578155
                          3       1    1dxy              0.550000       1.001394
                          3       1    1dxz              0.550000       1.001394
                          3       1    1dy2              0.550000       0.578155
                          3       1    1dyz              0.550000       1.001394
                          3       1    1dz2              0.550000       0.578155

     RI Auxiliary Basis Set                                        cc-pVDZ-RIFIT

       Number of orbital shell sets:                                          18
       Number of orbital shells:                                              18
       Number of primitive Cartesian functions:                               18
       Number of Cartesian basis functions:                                   66
       Number of spherical basis functions:                                   56
       Norm type:                                                              2

       Normalised Cartesian orbitals:

                        Set   Shell   Orbital            Exponent    Coefficient

                          1       1    1s                0.206796       0.218558

                          2       1    1px               0.321667       0.345301
                          2       1    1py               0.321667       0.345301
                          2       1    1pz               0.321667       0.345301

                          3       1    1dx2              0.340842       0.250252
                          3       1    1dxy              0.340842       0.433449
                          3       1    1dxz              0.340842       0.433449
                          3       1    1dy2              0.340842       0.250252
                          3       1    1dyz              0.340842       0.433449
                          3       1    1dz2              0.340842       0.250252

                          4       1    1s                0.409072       0.364552

                          5       1    1px               0.754465       1.002280
                          5       1    1py               0.754465       1.002280
                          5       1    1pz               0.754465       1.002280

                          6       1    1s                0.782697       0.593069

                          7       1    1fx3              0.895756       1.149162
                          7       1    1fx2y             0.895756       2.569605
                          7       1    1fx2z             0.895756       2.569605
                          7       1    1fxy2             0.895756       2.569605
                          7       1    1fxyz             0.895756       4.450686
                          7       1    1fxz2             0.895756       2.569605
                          7       1    1fy3              0.895756       1.149162
                          7       1    1fy2z             0.895756       2.569605
                          7       1    1fyz2             0.895756       2.569605
                          7       1    1fz3              0.895756       1.149162

                          8       1    1dx2              0.922515       1.429266
                          8       1    1dxy              0.922515       2.475561
                          8       1    1dxz              0.922515       2.475561
                          8       1    1dy2              0.922515       1.429266
                          8       1    1dyz              0.922515       2.475561
                          8       1    1dz2              0.922515       1.429266

                          9       1    1s                1.513330       0.972434

                         10       1    1px               1.720600       2.808924
                         10       1    1py               1.720600       2.808924
                         10       1    1pz               1.720600       2.808924

                         11       1    1dx2              2.678440       9.230024
                         11       1    1dxy              2.678440      15.986870
                         11       1    1dxz              2.678440      15.986870
                         11       1    1dy2              2.678440       9.230024
                         11       1    1dyz              2.678440      15.986870
                         11       1    1dz2              2.678440       9.230024

                         12       1    1fx3              2.742930      14.254027
                         12       1    1fx2y             2.742930      31.872974
                         12       1    1fx2z             2.742930      31.872974
                         12       1    1fxy2             2.742930      31.872974
                         12       1    1fxyz             2.742930      55.205610
                         12       1    1fxz2             2.742930      31.872974
                         12       1    1fy3              2.742930      14.254027
                         12       1    1fy2z             2.742930      31.872974
                         12       1    1fyz2             2.742930      31.872974
                         12       1    1fz3              2.742930      14.254027

                         13       1    1s                4.772770       2.301378

                         14       1    1px               6.005230      13.399918
                         14       1    1py               6.005230      13.399918
                         14       1    1pz               6.005230      13.399918

                         15       1    1dx2             10.171500      95.352748
                         15       1    1dxy             10.171500     165.155804
                         15       1    1dxz             10.171500     165.155804
                         15       1    1dy2             10.171500      95.352748
                         15       1    1dyz             10.171500     165.155804
                         15       1    1dz2             10.171500      95.352748

                         16       1    1s               13.804500       5.104176

                         17       1    1px              20.885100      63.640823
                         17       1    1py              20.885100      63.640823
                         17       1    1pz              20.885100      63.640823

                         18       1    1s               62.745300      15.888979

       Atomic covalent radius [Angstrom]:                                  0.770

       Atomic van der Waals radius [Angstrom]:                             1.700

     The atoms of this atomic kind are PAW atoms (GAPW):
       Hard Gaussian function radius:                                      1.512
       Rho0 radius:                                                        1.512
       Maximum GTO radius used for PAW projector construction:            24.566

     GAPW Soft Basis Set                                            cc-pVDZ_soft

       Number of orbital shell sets:                                           3
       Number of orbital shells:                                               6
       Number of primitive Cartesian functions:                                7
       Number of Cartesian basis functions:                                   15
       Number of spherical basis functions:                                   14
       Norm type:                                                              2

       Normalised Cartesian orbitals:

                        Set   Shell   Orbital            Exponent    Coefficient

                          1       1    1px               2.002000       0.711071
                                                         0.545600       0.339917
                                                         0.151700       0.063270
                          1       1    1py               2.002000       0.711071
                                                         0.545600       0.339917
                                                         0.151700       0.063270
                          1       1    1pz               2.002000       0.711071
                                                         0.545600       0.339917
                                                         0.151700       0.063270

                          1       2    2px               2.002000       0.000000
                                                         0.545600       0.000000
                                                         0.151700       0.134950
                          1       2    2py               2.002000       0.000000
                                                         0.545600       0.000000
                                                         0.151700       0.134950
                          1       2    2pz               2.002000       0.000000
                                                         0.545600       0.000000
                                                         0.151700       0.134950

                          2       1    1s                2.797000       0.439427
                                                         0.521500       0.006650
                                                         0.159600      -0.000574

                          2       2    2s                2.797000      -0.196168
                                                         0.521500       0.238162
                                                         0.159600       0.104468

                          2       3    3s                2.797000       0.000000
                                                         0.521500       0.000000
                                                         0.159600       0.179964

                          3       1    1dx2              0.550000       0.578155
                          3       1    1dxy              0.550000       1.001394
                          3       1    1dxz              0.550000       1.001394
                          3       1    1dy2              0.550000       0.578155
                          3       1    1dyz              0.550000       1.001394
                          3       1    1dz2              0.550000       0.578155

     AE Potential information for                                            ALL

       Description:                                       All-electron potential
                                          Krack, Parrinello, PCCP 2, 2105 (2000)

       Gaussian exponent of the core charge distribution:               4.109048
       Electronic configuration (s p d ...):                           4   2   0

  4. Atomic kind: H                                     Number of atoms:       4

     Orbital Basis Set                                                   cc-pVDZ

       Number of orbital shell sets:                                           2
       Number of orbital shells:                                               3
       Number of primitive Cartesian functions:                                5
       Number of Cartesian basis functions:                                    5
       Number of spherical basis functions:                                    5
       Norm type:                                                              2

       Normalised Cartesian orbitals:

                        Set   Shell   Orbital            Exponent    Coefficient

                          1       1    1s               13.010000       0.096107
                                                         1.962000       0.163020
                                                         0.444600       0.185545
                                                         0.122000       0.073744

                          1       2    2s               13.010000       0.000000
                                                         1.962000       0.000000
                                                         0.444600       0.000000
                                                         0.122000       0.147123

                          2       1    1px               0.727000       0.956881
                          2       1    1py               0.727000       0.956881
                          2       1    1pz               0.727000       0.956881

     RI Auxiliary Basis Set                                        cc-pVDZ-RIFIT

       Number of orbital shell sets:                                           6
       Number of orbital shells:                                               6
       Number of primitive Cartesian functions:                                6
       Number of Cartesian basis functions:                                   15
       Number of spherical basis functions:                                   14
       Norm type:                                                              2

       Normalised Cartesian orbitals:

                        Set   Shell   Orbital            Exponent    Coefficient

                          1       1    1s                0.291662       0.282859

                          2       1    1px               0.986401       1.401222
                          2       1    1py               0.986401       1.401222
                          2       1    1pz               0.986401       1.401222

                          3       1    1s                1.142965       0.787834

                          4       1    1dx2              1.172083       2.173136
                          4       1    1dxy              1.172083       3.763982
                          4       1    1dxz              1.172083       3.763982
                          4       1    1dy2              1.172083       2.173136
                          4       1    1dyz              1.172083       3.763982
                          4       1    1dz2              1.172083       2.173136

                          5       1    1px               1.914964       3.211004
                          5       1    1py               1.914964       3.211004
                          5       1    1pz               1.914964       3.211004

                          6       1    1s                5.115890       2.424381

       Atomic covalent radius [Angstrom]:                                  0.320

       Atomic van der Waals radius [Angstrom]:                             1.090

     The atoms of this atomic kind are PAW atoms (GAPW):
       Hard Gaussian function radius:                                      1.200
       Rho0 radius:                                                        1.200
       Maximum GTO radius used for PAW projector construction:            24.566

     GAPW Soft Basis Set                                            cc-pVDZ_soft

       Number of orbital shell sets:                                           2
       Number of orbital shells:                                               3
       Number of primitive Cartesian functions:                                4
       Number of Cartesian basis functions:                                    5
       Number of spherical basis functions:                                    5
       Norm type:                                                              2

       Normalised Cartesian orbitals:

                        Set   Shell   Orbital            Exponent    Coefficient

                          1       1    1s                1.962000       0.163020
                                                         0.444600       0.185545
                                                         0.122000       0.073744

                          1       2    2s                1.962000       0.000000
                                                         0.444600       0.000000
                                                         0.122000       0.147123

                          2       1    1px               0.727000       0.956881
                          2       1    1py               0.727000       0.956881
                          2       1    1pz               0.727000       0.956881

     AE Potential information for                                            ALL

       Description:                                       All-electron potential
                                          Krack, Parrinello, PCCP 2, 2105 (2000)

       Gaussian exponent of the core charge distribution:              12.500000
       Electronic configuration (s p d ...):                           1   0   0


 MOLECULE KIND INFORMATION


 All atoms are their own molecule, skipping detailed information


 TOTAL NUMBERS AND MAXIMUM NUMBERS

  Total number of            - Atomic kinds:                                   4
                             - Atoms:                                         14
                             - Shell sets:                                    38
                             - Shells:                                        72
                             - Primitive Cartesian functions:                160
                             - Cartesian basis functions:                    170
                             - Spherical basis functions:                    160

  Maximum angular momentum of the orbital basis functions:                     2


 MODULE QUICKSTEP: ATOMIC COORDINATES IN ANGSTROM

   Atom Kind Element         X             Y             Z       Z(eff)     Mass
      1    1 O     8     14.063516     15.997505     12.659839   8.0000  15.9994
      2    2 N     7     15.019867     17.119862     14.433981   7.0000  14.0067
      3    2 N     7     14.574867     13.452990     14.424560   7.0000  14.0067
      4    3 C     6     14.568185     15.926031     13.768332   6.0000  12.0107
      5    3 C     6     14.828266     14.791285     14.624562   6.0000  12.0107
      6    3 C     6     15.011177     12.867389     15.519015   6.0000  12.0107
      7    4 H     1     14.974994     11.800685     15.717664   1.0000   1.0079
      8    4 H     1     14.873505     17.971891     13.897115   1.0000   1.0079
      9    2 N     7     15.834802     16.172250     16.439738   7.0000  14.0067
     10    2 N     7     15.539858     13.756996     16.430239   7.0000  14.0067
     11    4 H     1     15.936484     13.550795     17.340161   1.0000   1.0079
     12    3 C     6     15.599409     17.199015     15.664780   6.0000  12.0107
     13    3 C     6     15.431416     15.005900     15.871599   6.0000  12.0107
     14    4 H     1     15.875951     18.199315     16.002128   1.0000   1.0079



 SCF PARAMETERS         Density guess:                                    ATOMIC
                        --------------------------------------------------------
                        max_scf:                                             500
                        max_scf_history:                                       0
                        max_diis:                                              4
                        --------------------------------------------------------
                        eps_scf:                                        1.00E-06
                        eps_scf_history:                                0.00E+00
                        eps_diis:                                       1.00E-01
                        eps_eigval:                                     1.00E-05
                        --------------------------------------------------------
                        level_shift [a.u.]:                             0.000000
                        added MOs                                       125    0
                        --------------------------------------------------------
                        Mixing method:                            BROYDEN_MIXING
                                                charge density mixing in g-space
                        --------------------------------------------------------
                        No outer SCF

 PW_GRID| Information for grid number                                          1
 PW_GRID| Grid distributed over                                   216 processors
 PW_GRID| Real space group dimensions                                   216    1
 PW_GRID| the grid is blocked:                                                NO
 PW_GRID| Cutoff [a.u.]                                                    250.0
 PW_GRID| spherical cutoff:                                                   NO
 PW_GRID|   Bounds   1           -202     202                Points:         405
 PW_GRID|   Bounds   2           -202     202                Points:         405
 PW_GRID|   Bounds   3           -202     202                Points:         405
 PW_GRID| Volume element (a.u.^3)  0.2743E-02     Volume (a.u.^3)    182205.0337
 PW_GRID| Grid span                                                    FULLSPACE
 PW_GRID|   Distribution                         Average         Max         Min
 PW_GRID|   G-Vectors                           307546.9      307800      307395
 PW_GRID|   G-Rays                                 759.4         760         759
 PW_GRID|   Real Space Points                   307546.9      328050      164025

 PW_GRID| Information for grid number                                          2
 PW_GRID| Number of the reference grid                                         1
 PW_GRID| Grid distributed over                                   216 processors
 PW_GRID| Real space group dimensions                                   216    1
 PW_GRID| the grid is blocked:                                                NO
 PW_GRID| Cutoff [a.u.]                                                     83.3
 PW_GRID| spherical cutoff:                                                   NO
 PW_GRID|   Bounds   1           -120     119                Points:         240
 PW_GRID|   Bounds   2           -120     119                Points:         240
 PW_GRID|   Bounds   3           -120     119                Points:         240
 PW_GRID| Volume element (a.u.^3)  0.1318E-01     Volume (a.u.^3)    182205.0337
 PW_GRID| Grid span                                                    FULLSPACE
 PW_GRID|   Distribution                         Average         Max         Min
 PW_GRID|   G-Vectors                            64000.0       64560       63360
 PW_GRID|   G-Rays                                 266.7         269         264
 PW_GRID|   Real Space Points                    64000.0      115200       57600

 PW_GRID| Information for grid number                                          3
 PW_GRID| Number of the reference grid                                         1
 PW_GRID| Grid distributed over                                   216 processors
 PW_GRID| Real space group dimensions                                    12   18
 PW_GRID| the grid is blocked:                                                NO
 PW_GRID| Cutoff [a.u.]                                                     27.8
 PW_GRID| spherical cutoff:                                                   NO
 PW_GRID|   Bounds   1            -67      67                Points:         135
 PW_GRID|   Bounds   2            -67      67                Points:         135
 PW_GRID|   Bounds   3            -67      67                Points:         135
 PW_GRID| Volume element (a.u.^3)  0.7406E-01     Volume (a.u.^3)    182205.0337
 PW_GRID| Grid span                                                    FULLSPACE
 PW_GRID|   Distribution                         Average         Max         Min
 PW_GRID|   G-Vectors                            11390.6       11610       11205
 PW_GRID|   G-Rays                                  84.4          86          83
 PW_GRID|   Real Space Points                    11390.6       12960       10395

 PW_GRID| Information for grid number                                          4
 PW_GRID| Number of the reference grid                                         1
 PW_GRID| Grid distributed over                                   216 processors
 PW_GRID| Real space group dimensions                                    12   18
 PW_GRID| the grid is blocked:                                                NO
 PW_GRID| Cutoff [a.u.]                                                      9.3
 PW_GRID| spherical cutoff:                                                   NO
 PW_GRID|   Bounds   1            -40      39                Points:          80
 PW_GRID|   Bounds   2            -40      39                Points:          80
 PW_GRID|   Bounds   3            -40      39                Points:          80
 PW_GRID| Volume element (a.u.^3)  0.3559         Volume (a.u.^3)    182205.0337
 PW_GRID| Grid span                                                    FULLSPACE
 PW_GRID|   Distribution                         Average         Max         Min
 PW_GRID|   G-Vectors                             2370.4        2480        2240
 PW_GRID|   G-Rays                                  29.6          31          28
 PW_GRID|   Real Space Points                     2370.4        2800        1920

 POISSON| Solver                                                         WAVELET
 POISSON| Wavelet| Scaling function                                           40
 POISSON| Periodicity                                                       NONE

 RS_GRID| Information for grid number                                          1
 RS_GRID|   Bounds   1           -202     202                Points:         405
 RS_GRID|   Bounds   2           -202     202                Points:         405
 RS_GRID|   Bounds   3           -202     202                Points:         405
 RS_GRID| Real space distribution over                                  6 groups
 RS_GRID| Real space distribution along direction                              1
 RS_GRID| Border size                                                         34
 RS_GRID| Real space distribution over                                  6 groups
 RS_GRID| Real space distribution along direction                              2
 RS_GRID| Border size                                                         34
 RS_GRID| Real space distribution over                                  6 groups
 RS_GRID| Real space distribution along direction                              3
 RS_GRID| Border size                                                         34
 RS_GRID|   Distribution                         Average         Max         Min
 RS_GRID|   Planes                                 135.5         136         135
 RS_GRID|   Distribution                         Average         Max         Min
 RS_GRID|   Planes                                 135.5         136         135
 RS_GRID|   Distribution                         Average         Max         Min
 RS_GRID|   Planes                                 135.5         136         135

 RS_GRID| Information for grid number                                          2
 RS_GRID|   Bounds   1           -120     119                Points:         240
 RS_GRID|   Bounds   2           -120     119                Points:         240
 RS_GRID|   Bounds   3           -120     119                Points:         240
 RS_GRID| Real space distribution over                                  6 groups
 RS_GRID| Real space distribution along direction                              1
 RS_GRID| Border size                                                         34
 RS_GRID| Real space distribution over                                  6 groups
 RS_GRID| Real space distribution along direction                              2
 RS_GRID| Border size                                                         34
 RS_GRID| Real space distribution over                                  6 groups
 RS_GRID| Real space distribution along direction                              3
 RS_GRID| Border size                                                         34
 RS_GRID|   Distribution                         Average         Max         Min
 RS_GRID|   Planes                                 108.0         108         108
 RS_GRID|   Distribution                         Average         Max         Min
 RS_GRID|   Planes                                 108.0         108         108
 RS_GRID|   Distribution                         Average         Max         Min
 RS_GRID|   Planes                                 108.0         108         108

[...]
 calc_screening_functions             1 10.0    0.541    0.549    1.458    1.549
 xc_functional_eval                 375 10.9    0.001    0.002    1.063    1.433
 pbe_lda_eval                       375 11.9    1.063    1.432    1.063    1.432
 calc_pair_dist_radii                 1 10.0    0.412    0.420    1.315    1.409
 calculate_vxc_atom                  76  8.0    0.050    0.295    1.373    1.377
 mp_sum_dm                         3272  7.6    1.221    1.317    1.221    1.317
 create_hermitian_form_of_ABBA        1  8.0    0.000    0.000    1.284    1.290
 mp_sendrecv_dv                   32680 10.0    1.224    1.274    1.224    1.274
 pw_scatter_p                       830 12.1    1.083    1.238    1.083    1.238
 cp_fm_power                          2  7.5    0.012    0.013    1.203    1.208
 diagonalize_C                        1  8.0    0.000    0.000    1.191    1.192
 rs_gather_matrices                  76 10.0    0.001    0.003    1.125    1.185
 grid_integrate_task_list            76 10.0    0.048    1.136    0.048    1.136
 parser_read_line                269988  4.0    0.091    0.100    1.057    1.082
 pw_gather_p                        757 11.8    0.836    1.056    0.836    1.056
 mp2_ri_gpw_compute_in                1  5.0    0.000    0.001    1.023    1.023
 mp2_ri_gpw_compute_in_loop           1  6.0    0.000    0.000    1.006    1.006
 parser_read_line_low               296  5.0    0.087    0.412    0.965    0.991
 gaVxcgb_GC                         150  9.0    0.022    0.980    0.022    0.980
 contract_B_L                         4  7.0    0.002    0.002    0.955    0.979
 cp2k_distribution_to_z_slices       76  9.0    0.351    0.382    0.774    0.954
 broadcast_input_information        296  6.0    0.210    0.232    0.878    0.941
 rs_grid_zero                       382 11.2    0.856    0.886    0.856    0.886
 dbt_total                            8  8.0    0.000    0.000    0.883    0.883
 transfer_pw2rs_90                   76 12.0    0.177    0.209    0.780    0.876
 dbt_contract                         4  9.0    0.001    0.001    0.576    0.871
 fft_wrap_pw1pw2_90                 152 10.5    0.023    0.046    0.724    0.842
 transfer_rs2pw_90                   76  9.0    0.176    0.205    0.712    0.819
 mp_isendrecv_dv                  65360 12.0    0.415    0.814    0.415    0.814
 pw_derive                          678 11.3    0.742    0.793    0.742    0.793
 rpa_num_int_RPA_matrix_operati     100  7.0    0.001    0.002    0.761    0.762
 dbt_copy                            12 10.1    0.000    0.000    0.133    0.669
 dbt_reshape                          8 11.6    0.009    0.012    0.122    0.659
 dbt_communicate_buffer               8 12.6    0.001    0.001    0.110    0.645
 mp_waitall_2                        52 15.7    0.110    0.644    0.110    0.644
 pw_poisson_rebuild                  76  9.0    0.000    0.000    0.610    0.634
 ps_wavelet_create                    1 10.0    0.000    0.000    0.610    0.634
 RS_z_slice_distribution              1 11.0    0.499    0.596    0.610    0.634
 pw_copy                           1135 10.6    0.570    0.634    0.570    0.634
 qs_energies_init_hamiltonians        1  3.0    0.000    0.000    0.597    0.597
 build_core_hamiltonian_matrix        1  4.0    0.000    0.000    0.585    0.585
 compute_vec_Sigma_x_minus_vxc_       1  4.0    0.000    0.000    0.584    0.584
 overlap_condnum                      1  5.0    0.000    0.000    0.583    0.584
 calculate_dm_sparse                 75  6.0    0.001    0.001    0.562    0.573
 cp_dbcsr_plus_fm_fm_t               75  7.0    0.001    0.001    0.561    0.572
 transfer_pw2rs_10                   76 12.0    0.183    0.226    0.487    0.521
 calc_mat_Q                         100  8.0    0.000    0.000    0.509    0.516
 pw_copy_to_array                   757 11.8    0.328    0.512    0.328    0.512
 dbcsr_complete_redistribute        252  8.4    0.012    0.015    0.497    0.506
 contract_S_to_Q                    100  9.0    0.001    0.001    0.498    0.505
 transfer_rs2pw_10                   76  9.0    0.185    0.197    0.491    0.500
 arnoldi_conjugate_gradient           5  6.0    0.011    0.014    0.475    0.475
 pw_poisson_set                      77  8.9    0.002    0.003    0.452    0.461
 cp_fm_cholesky_invert              101  8.0    0.431    0.451    0.431    0.451
 mp_bcast_i_src                    1184  7.0    0.311    0.450    0.311    0.450
 mp_bcast_am_src                    296  7.0    0.319    0.383    0.346    0.444
 mp_cart_create                     548  9.9    0.326    0.432    0.327    0.433
 dbt_pgrid_create_expert             84 10.8    0.000    0.000    0.296    0.400
 mp2_main_alloc_hfx                   1  4.0    0.184    0.398    0.184    0.398
 mp_sum_i                            21  9.7    0.215    0.391    0.215    0.391
 restraint_control                    1  2.0    0.000    0.000    0.214    0.390
 copy_dbcsr_to_fm                    98  6.4    0.002    0.002    0.345    0.348
 dbt_remap                            8 10.0    0.002    0.002    0.344    0.344
 pw_integral_ab_c1d_c1d_gs           76  9.0    0.247    0.249    0.313    0.342
 copy_fm_to_dbcsr                   154  8.1    0.001    0.001    0.328    0.337
 mp_max_i                           602  2.9    0.134    0.327    0.134    0.327
 dbt_nd_mp_comm                       8 11.0    0.000    0.000    0.243    0.322
 mp_irecv_dm3                      2748 11.5    0.178    0.318    0.178    0.318
 pw_axpy                            755  9.3    0.275    0.313    0.275    0.313
 pw_copy_from_array                 830 12.1    0.248    0.310    0.248    0.310
 calculate_rho_atom                 304  9.0    0.190    0.309    0.190    0.309
 fft_wrap_pw1pw2_30                 152 10.5    0.004    0.005    0.293    0.305
 mp_sum_dv                        16051 11.6    0.248    0.304    0.248    0.304
 init_scf_run                         1  3.0    0.000    0.000    0.302    0.303
 mp_isend_dm3                      2748 11.5    0.153    0.299    0.153    0.299
 Vh_1c_gg_integrals                  76  8.0    0.007    0.056    0.124    0.297
 mp_alltoall_z11v                   304 13.5    0.281    0.293    0.281    0.293
 dbcsr_sym_matrix_vector_mult      1606  7.0    0.025    0.031    0.248    0.289
 scf_env_initial_rho_setup            1  4.0    0.000    0.000    0.271    0.272
 dbcsr_multiply_generic             104  8.1    0.006    0.006    0.256    0.264
 mp_sum_l                           938  6.1    0.217    0.246    0.217    0.246
 integrate_four_center_main          76 10.0    0.010    0.024    0.180    0.244
 cp_fm_cholesky_decompose           102  9.0    0.240    0.242    0.240    0.242
 mp_alltoall_i11v                   856  9.3    0.233    0.240    0.233    0.240
 compute_Erpa_by_freq_int           100  8.0    0.001    0.001    0.239    0.240
 integrate_four_center_bin         5813 11.0    0.170    0.236    0.170    0.236
 integrate_four_center_load          76 10.0    0.000    0.001    0.206    0.235
 hfx_load_balance                     1 11.0    0.000    0.000    0.205    0.235
 mp_isend_dv                      23578 11.8    0.166    0.234    0.166    0.234
 dbcsr_desymmetrize_deep            100  7.4    0.003    0.003    0.226    0.230
 hfx_load_balance_range               1 12.0    0.000    0.000    0.185    0.215
 offload_free_buffer                 84  8.4    0.188    0.214    0.188    0.214
 dbt_tas_multiply                     8 11.5    0.000    0.000    0.198    0.198
 dbt_tas_total                        8 12.5    0.002    0.005    0.198    0.198
 yz_to_xz                           152 14.0    0.014    0.015    0.180    0.191
 cp_fm_to_fm_submat_general         112 10.1    0.131    0.171    0.131    0.171
 pw_zero                            452 10.3    0.146    0.170    0.146    0.170
 qs_init_subsys                       1  2.0    0.003    0.004    0.164    0.164
 hybrid_alltoall_any                308 10.9    0.004    0.005    0.151    0.163
 qs_env_setup                         1  3.0    0.000    0.000    0.155    0.155
 qs_env_rebuild_pw_env                2  3.5    0.000    0.000    0.154    0.155
 pw_env_rebuild                       1  5.0    0.001    0.001    0.153    0.154
 dbcsr_add_d                       2470  7.1    0.002    0.003    0.023    0.152
 fft_wrap_pw1pw2_10                 152 10.5    0.001    0.002    0.149    0.152
 integrate_four_center_getP          76 10.0    0.025    0.028    0.143    0.150
 dbcsr_add_anytype                 2470  8.1    0.003    0.019    0.020    0.149
 update_ks_atom                      76  8.0    0.010    0.016    0.110    0.145
 mp_bcast_dm                       2128  9.0    0.100    0.137    0.100    0.137
 mp_rank_compare                   1587 12.9    0.130    0.136    0.130    0.136
 cp_fm_redistribute_start            81  8.0    0.093    0.097    0.124    0.134
 pw_grid_setup                        4  6.0    0.000    0.000    0.131    0.132
 pw_grid_setup_internal               4  7.0    0.003    0.004    0.131    0.132
 integrate_four_center_dist_KS       76 10.0    0.026    0.029    0.129    0.130
 multiply_cannon                    104  9.1    0.012    0.013    0.119    0.127
 xz_to_yz                           152 11.0    0.009    0.011    0.124    0.127
 calculate_rho_atom_coeff            76  6.0    0.011    0.022    0.120    0.120
 dbcsr_col_vec_to_rep_row          1606  8.0    0.011    0.014    0.081    0.118
 make_m2s                           208  9.1    0.005    0.006    0.102    0.112
 dbcsr_finalize                    4082 10.8    0.009    0.037    0.031    0.109
 dbcsr_rep_row_to_rep_col_vec      1606  8.0    0.008    0.010    0.045    0.103
 dbt_tas_dbm                          8 13.5    0.000    0.000    0.094    0.094
 create_B                             1  8.0    0.000    0.000    0.091    0.094
 dbm_multiply                         8 15.5    0.084    0.090    0.084    0.090
 multiply_cannon_loop               104 10.1    0.018    0.020    0.084    0.090
 mp_bcast_dv                       1687  9.0    0.043    0.088    0.043    0.088
 vxc_of_r_new                       300  9.0    0.000    0.013    0.003    0.086
 scale_and_distribute               152 10.0    0.075    0.083    0.075    0.083
 mp_bcast_iv                        361  6.9    0.028    0.079    0.028    0.079
 dbt_tas_mm_1N                        6 14.5    0.000    0.000    0.072    0.078
 rs_scatter_matrices                 76  7.0    0.001    0.002    0.077    0.078
 create_A                             1  8.0    0.001    0.001    0.074    0.076
 cp_fm_syrk                           3  7.0    0.063    0.074    0.063    0.074
 dbt_tas_estimate_result_nze          4 12.0    0.001    0.001    0.074    0.074
 pw_grid_sort                         4  8.0    0.042    0.045    0.066    0.069
 cp_fm_uplo_to_full                 104  8.0    0.016    0.069    0.016    0.069
 cp_fm_symm                          76  7.0    0.061    0.066    0.061    0.066
 pw_scale                           301  9.5    0.050    0.063    0.050    0.063
 make_images                        208 10.1    0.011    0.012    0.056    0.062
 mp_alltoall_i22                    352  9.1    0.050    0.059    0.050    0.059
 postprocess_bse                      1  9.0    0.000    0.000    0.058    0.059
 mp2_eri_3c_integrate                 1  7.0    0.002    0.003    0.028    0.059
 scf_post_calculation_gpw             1  3.0    0.000    0.000    0.056    0.057
 write_available_results              1  4.0    0.000    0.000    0.056    0.057
 write_mo_free_results                1  5.0    0.003    0.005    0.056    0.057
 integrate_set_3c                  2310  8.0    0.023    0.050    0.026    0.057
 dbcsr_copy                        7113  7.6    0.025    0.034    0.042    0.057
 dbcsr_merge_all                   3202 11.5    0.012    0.042    0.016    0.052
 mixing_init                          1  5.0    0.041    0.051    0.050    0.051
 dbcsr_iterator_start             21599  8.9    0.027    0.041    0.032    0.050
 dbcsr_create_new                  9658  9.1    0.028    0.032    0.035    0.042
 dbt_tas_replicate                    8 13.5    0.014    0.021    0.034    0.037
 fm_general_add_bse                   5 10.2    0.000    0.000    0.033    0.036
 mp_maxloc_dv                      1529  1.0    0.033    0.035    0.033    0.035
 mp_irecv_dv                      23458 11.8    0.022    0.035    0.022    0.035
 cube_transpose_2                   152 11.0    0.003    0.003    0.030    0.034
 write_mo_set_to_restart             75  5.0    0.001    0.010    0.011    0.033
 mp_comm_split_direct                48 14.5    0.023    0.033    0.023    0.033
 dbcsr_iterator_stop              21599  8.9    0.020    0.027    0.024    0.032
 dbt_distribution_new_expert         76 10.1    0.001    0.001    0.030    0.031
 make_images_sizes                  208 11.1    0.000    0.000    0.027    0.030
 dbcsr_crop_matrix                  375 10.0    0.003    0.003    0.027    0.029
 mp_alltoall_i44                    208 12.1    0.026    0.029    0.026    0.029
 dbt_tas_distribution_new            98 11.9    0.019    0.019    0.028    0.029
 cube_transpose_1                   152 14.0    0.003    0.003    0.027    0.029
 get_multipoles_mo                    1 10.0    0.000    0.000    0.027    0.028
 calculate_rho0_atom                304  9.0    0.027    0.028    0.027    0.028
 create_fast_col_vec_access        3212  8.0    0.013    0.018    0.020    0.028
 sort_shells                          4  9.0    0.024    0.027    0.024    0.027
 create_fast_row_vec_access        3212  8.0    0.013    0.017    0.021    0.027
 print_transition_amplitudes          1 10.0    0.000    0.000    0.026    0.026
 print_transition_amplitudes_co      50 11.0    0.000    0.001    0.026    0.026
 filter_eigvec_contrib               50 12.0    0.016    0.017    0.026    0.026
 mult_B_with_W                        1  8.0    0.000    0.000    0.025    0.026
 multiply_cannon_metrocomm3        2904 11.1    0.005    0.005    0.017    0.026
 write_mo_set_low                     4  6.0    0.000    0.000    0.010    0.026
 cp_fm_write_unformatted              4  7.0    0.010    0.023    0.010    0.026
 mp2_main_free_hfx                    1  4.0    0.010    0.026    0.010    0.026
 hirshfeld_integration                1  6.0    0.001    0.006    0.025    0.025
 self_consistency_check              75  5.0    0.000    0.000    0.018    0.024
 mp_cart_sub                        202  8.4    0.023    0.023    0.023    0.023
 mp_cart_rank                     82668 10.0    0.022    0.023    0.022    0.023
 cp_sm_mix                           75  6.0    0.000    0.001    0.018    0.023
 mp_max_d                            77  6.9    0.018    0.023    0.018    0.023
 dbcsr_copy_submatrix               375 11.0    0.003    0.004    0.021    0.022
 calculate_hirshfeld_normalizat       1  6.0    0.001    0.006    0.021    0.022
 dbt_split_blocks_generic            20  8.8    0.004    0.004    0.020    0.020
 mp_bcast_iv_src                    296  7.0    0.011    0.020    0.011    0.020
 mp_sum_im                        10898 13.0    0.015    0.020    0.015    0.020
 mp_allgather_i34                   104 10.1    0.017    0.020    0.017    0.020
 create_integ_mat                     4  6.0    0.001    0.001    0.020    0.020
 pw_grid_distribute                   4  8.0    0.010    0.010    0.016    0.019
 xc_pw_smooth                        75 10.0    0.000    0.000    0.017    0.019
 cp_dbcsr_sm_fm_multiply              3 11.0    0.000    0.000    0.019    0.019
 dbcsr_work_create                 3750 10.6    0.004    0.012    0.006    0.018
 multiply_cannon_metrocomm4        2720 11.1    0.008    0.009    0.015    0.018
 mp_bcast_av                        765  1.0    0.006    0.008    0.013    0.018
 array2fm                             4  7.0    0.000    0.000    0.015    0.018
 dbcsr_work_destroy_all            3750 11.6    0.004    0.013    0.005    0.017
 mp_alltoall_i                       41 13.9    0.014    0.017    0.014    0.017
 compute_max_radius                   1  6.0    0.017    0.017    0.017    0.017
 mp_sum_iv                          309  9.6    0.014    0.017    0.014    0.017
 dbt_create_new                      40  9.5    0.001    0.001    0.017    0.017
 dbcsr_scale_anytype               2471  9.1    0.005    0.006    0.012    0.016
 mp_send_dv                           4  8.0    0.000    0.016    0.000    0.016
 make_images_data                   208 11.1    0.003    0.003    0.008    0.016
 convert_to_new_pgrid                24 13.5    0.006    0.007    0.014    0.016
 Q_trace_and_add_unit_matrix        100  8.0    0.001    0.001    0.011    0.016
 get_2c_integrals                     1  6.0    0.000    0.000    0.015    0.016
 pw_grid_remap                        4  8.0    0.003    0.004    0.014    0.016
 pw_grid_assign                       4  8.0    0.013    0.015    0.015    0.015
 mp_comm_split                       81  9.0    0.015    0.015    0.015    0.015
 multiply_cannon_metrocomm1        2904 11.1    0.003    0.004    0.010    0.015
 multiply_cannon_metrocomm2        2640 11.1    0.008    0.008    0.014    0.015
 dbt_tas_reshape                     10 13.8    0.000    0.000    0.014    0.015
 dbcsr_sym_matrix_vector_mult_l    1606  8.0    0.006    0.010    0.011    0.015
 dbt_tas_create_split                44 13.2    0.000    0.000    0.015    0.015
 dbt_tas_create_split_rows_or_c      44 14.2    0.000    0.000    0.014    0.015
 dbm_reserve_blocks                  70 14.1    0.013    0.015    0.013    0.015
 dbcsr_data_release               48596 10.3    0.010    0.014    0.010    0.014
 hfx_create                           1  2.0    0.013    0.014    0.014    0.014
 reshape_mm_small                     8 13.5    0.002    0.002    0.014    0.014
 mp_min_d                             1  6.0    0.010    0.013    0.010    0.013
 dbcsr_make_images_dense            152 10.0    0.003    0.003    0.008    0.013
 mp_sum_im3                           4  9.0    0.011    0.013    0.011    0.013
 calc_fm_mat_S_rpa                  100  9.0    0.010    0.013    0.010    0.013
 dbm_redistribute                    12 13.4    0.012    0.013    0.012    0.013
 dbt_tas_mm_2                         2 14.5    0.000    0.000    0.012    0.012
 multiply_cannon_multrec           2904 11.1    0.007    0.012    0.007    0.012
 dbcsr_destroy                     6372  8.7    0.007    0.008    0.010    0.012
 dbcsr_data_new                   24535 10.8    0.007    0.012    0.007    0.012
 fm_general_add_bse_5_comm_buff       5 11.2    0.000    0.000    0.007    0.011
 communicate_buffer                   5 12.2    0.001    0.001    0.007    0.011
 dbt_tas_communicate_buffer          18 15.7    0.001    0.002    0.007    0.011
 hfx_load_balance_redist              1 12.0    0.008    0.009    0.010    0.011
 qs_env_update_s_mstruct              1  4.0    0.000    0.000    0.009    0.010
 dbcsr_set                         6931  8.5    0.006    0.008    0.008    0.010
 -------------------------------------------------------------------------------

 The number of warnings for this run is : 1
 
 -------------------------------------------------------------------------------
  **** **** ******  **  PROGRAM ENDED AT                 2025-03-30 18:36:53.643
 ***** ** ***  *** **   PROGRAM RAN ON                              i01r09c05s02
 **    ****   ******    PROGRAM RAN BY                                   di38fab
 ***** **    ** ** **   PROGRAM PROCESS ID                               1356978
  **** **  *******  **  PROGRAM STOPPED IN /hppfs/scratch/04/di38fab/07_MOL_non_
                                           aug/05_MOL_non_aug/05_MOL/aUKBqsEOTmq
                                           69kFe5R_nOg/5k_set_final_qzvp/GEBTUC0
                                           1/cc-pVDZ/GW+BSE
