 DBCSR| CPU Multiplication driver                                           BLAS (U)
 DBCSR| Multrec recursion limit                                              512 (U)
 DBCSR| Multiplication stack size                                           1000 (D)
 DBCSR| Maximum elements for images                                    UNLIMITED (U)
 DBCSR| Multiplicative factor virtual images                                   1 (U)
 DBCSR| Use multiplication densification                                       T (D)
 DBCSR| Multiplication size stacks                                             3 (U)
 DBCSR| Use memory pool for CPU allocation                                     F (U)
 DBCSR| Number of 3D layers                                               SINGLE (U)
 DBCSR| Use MPI memory allocation                                              F (U)
 DBCSR| Use RMA algorithm                                                      F (U)
 DBCSR| Use Communication thread                                               T (U)
 DBCSR| Communication thread load                                             75 (D)
 DBCSR| MPI: My process id                                                     0
 DBCSR| MPI: Number of processes                                             192
 DBCSR| OMP: Current number of threads                                         4
 DBCSR| OMP: Max number of threads                                             4
 DBCSR| Split modifier for TAS multiplication algorithm                  1.0E+00 (U)


  **** **** ******  **  PROGRAM STARTED AT               2025-04-20 13:36:24.080
 ***** ** ***  *** **   PROGRAM STARTED ON                          i02r01c02s07
 **    ****   ******    PROGRAM STARTED BY                               di38fab
 ***** **    ** ** **   PROGRAM PROCESS ID                               1935224
  **** **  *******  **  PROGRAM STARTED IN /hppfs/scratch/04/di38fab/05_MOL/W4-1
                                           1+ALK/li2/SZV/TDDFT/1e-4

 CP2K| version string:                 CP2K version 2025.1 (Development Version)
 CP2K| source code revision number:                             unknown revision
 CP2K| cp2kflags: omp libint fftw3 libxc parallel scalapack max_contr=4         
 CP2K| is freely available from                            https://www.cp2k.org/
 CP2K| Program compiled at                         Thu Apr 10 16:20:23 CEST 2025
 CP2K| Program compiled on                                               login01
 CP2K| Program compiled for                                        Supermuc-foss
 CP2K| Data directory path                  /hppfs/work/pn36zo/di38fab/cp2k/data
 CP2K| Input file name                                                    GW.inp

 GLOBAL| Force Environment number                                              1
 GLOBAL| Basis set file name            /hppfs/scratch/04/di38fab/04_TMD/BASIS_A
 GLOBAL| Potential file name            /hppfs/work/pn36zo/di38fab/cp2k/data/ALL
 GLOBAL| MM Potential file name                                     MM_POTENTIAL
 GLOBAL| Coordinate file name                                      __STD_INPUT__
 GLOBAL| Method name                                                        CP2K
 GLOBAL| Project name                                                       MoS2
 GLOBAL| Run type                                                         ENERGY
 GLOBAL| FFT library                                                       FFTW3
 GLOBAL| Diagonalization library                                       ScaLAPACK
 GLOBAL| DGEMM library                                                      BLAS
 GLOBAL| Orthonormality check for eigenvectors                          DISABLED
 GLOBAL| Matrix multiplication library                                 ScaLAPACK
 GLOBAL| All-to-all communication in single precision                          F
 GLOBAL| FFTs using library dependent lengths                                  F
 GLOBAL| Grid backend                                                       AUTO
 GLOBAL| Global print level                                               MEDIUM
 GLOBAL| MPI I/O enabled                                                       T
 GLOBAL| Total number of message passing processes                           192
 GLOBAL| Number of threads for this process                                    4
 GLOBAL| This output is from process                                           0
 GLOBAL| OpenMP stack size per thread (OMP_STACKSIZE)                    default
 GLOBAL| CPU model name             Intel(R) Xeon(R) Platinum 8174 CPU @ 3.10GHz

 MEMORY| system memory details [Kb]
 MEMORY|                        rank 0           min           max       average
 MEMORY| MemTotal             98436708      98436648      98436708      98436671
 MEMORY| MemFree              83888100      83512672      84412284      83908234
 MEMORY| Buffers                     0             0             0             0
 MEMORY| Cached                2453104       2387800       2466408       2442904
 MEMORY| Slab                  1219148       1159328       1255272       1223458
 MEMORY| SReclaimable           273524        262476        280744        273349
 MEMORY| MemLikelyFree        86614728      86250904      87062560      86624488


 *** Fundamental physical constants (SI units) ***

 *** Literature: B. J. Mohr and B. N. Taylor,
 ***             CODATA recommended values of the fundamental physical
 ***             constants: 2006, Web Version 5.1
 ***             http://physics.nist.gov/constants

 Speed of light in vacuum [m/s]                             2.99792458000000E+08
 Magnetic constant or permeability of vacuum [N/A**2]       1.25663706143592E-06
 Electric constant or permittivity of vacuum [F/m]          8.85418781762039E-12
 Planck constant (h) [J*s]                                  6.62606896000000E-34
 Planck constant (h-bar) [J*s]                              1.05457162825177E-34
 Elementary charge [C]                                      1.60217648700000E-19
 Electron mass [kg]                                         9.10938215000000E-31
 Electron g factor [ ]                                     -2.00231930436220E+00
 Proton mass [kg]                                           1.67262163700000E-27
 Fine-structure constant                                    7.29735253760000E-03
 Rydberg constant [1/m]                                     1.09737315685270E+07
 Avogadro constant [1/mol]                                  6.02214179000000E+23
 Boltzmann constant [J/K]                                   1.38065040000000E-23
 Atomic mass unit [kg]                                      1.66053878200000E-27
 Bohr radius [m]                                            5.29177208590000E-11

 *** Conversion factors ***

 [u] -> [a.u.]                                              1.82288848426455E+03
 [Angstrom] -> [Bohr] = [a.u.]                              1.88972613288564E+00
 [a.u.] = [Bohr] -> [Angstrom]                              5.29177208590000E-01
 [a.u.] -> [s]                                              2.41888432650478E-17
 [a.u.] -> [fs]                                             2.41888432650478E-02
 [a.u.] -> [J]                                              4.35974393937059E-18
 [a.u.] -> [N]                                              8.23872205491840E-08
 [a.u.] -> [K]                                              3.15774647902944E+05
 [a.u.] -> [kJ/mol]                                         2.62549961709828E+03
 [a.u.] -> [kcal/mol]                                       6.27509468713739E+02
 [a.u.] -> [Pa]                                             2.94210107994716E+13
 [a.u.] -> [bar]                                            2.94210107994716E+08
 [a.u.] -> [atm]                                            2.90362800883016E+08
 [a.u.] -> [eV]                                             2.72113838565563E+01
 [a.u.] -> [Hz]                                             6.57968392072181E+15
 [a.u.] -> [1/cm] (wave numbers)                            2.19474631370540E+05
 [a.u./Bohr**2] -> [1/cm]                                   5.14048714338585E+03
 

 CELL_TOP| Volume [angstrom^3]:                                     27000.000000
 CELL_TOP| Vector a [angstrom    30.000     0.000     0.000   |a| =    30.000000
 CELL_TOP| Vector b [angstrom     0.000    30.000     0.000   |b| =    30.000000
 CELL_TOP| Vector c [angstrom     0.000     0.000    30.000   |c| =    30.000000
 CELL_TOP| Angle (b,c), alpha [degree]:                                90.000000
 CELL_TOP| Angle (a,c), beta  [degree]:                                90.000000
 CELL_TOP| Angle (a,b), gamma [degree]:                                90.000000
 CELL_TOP| Numerically orthorhombic:                                         YES
 CELL_TOP| Periodicity                                                      NONE

 GENERATE|  Preliminary Number of Bonds generated:                             0
 GENERATE|  Achieved consistency in connectivity generation.

 CELL| Volume [angstrom^3]:                                         27000.000000
 CELL| Vector a [angstrom]:      30.000     0.000     0.000   |a| =    30.000000
 CELL| Vector b [angstrom]:       0.000    30.000     0.000   |b| =    30.000000
 CELL| Vector c [angstrom]:       0.000     0.000    30.000   |c| =    30.000000
 CELL| Angle (b,c), alpha [degree]:                                    90.000000
 CELL| Angle (a,c), beta  [degree]:                                    90.000000
 CELL| Angle (a,b), gamma [degree]:                                    90.000000
 CELL| Numerically orthorhombic:                                             YES
 CELL| Periodicity                                                          NONE

 CELL_REF| Volume [angstrom^3]:                                     27000.000000
 CELL_REF| Vector a [angstrom    30.000     0.000     0.000   |a| =    30.000000
 CELL_REF| Vector b [angstrom     0.000    30.000     0.000   |b| =    30.000000
 CELL_REF| Vector c [angstrom     0.000     0.000    30.000   |c| =    30.000000
 CELL_REF| Angle (b,c), alpha [degree]:                                90.000000
 CELL_REF| Angle (a,c), beta  [degree]:                                90.000000
 CELL_REF| Angle (a,b), gamma [degree]:                                90.000000
 CELL_REF| Numerically orthorhombic:                                         YES
 CELL_REF| Periodicity                                                      NONE

 *******************************************************************************
 *******************************************************************************
 **                                                                           **
 **     #####                         ##              ##                      **
 **    ##   ##            ##          ##              ##                      **
 **   ##     ##                       ##            ######                    **
 **   ##     ##  ##   ##  ##   #####  ##  ##   ####   ##    #####    #####    **
 **   ##     ##  ##   ##  ##  ##      ## ##   ##      ##   ##   ##  ##   ##   **
 **   ##  ## ##  ##   ##  ##  ##      ####     ###    ##   ######   ######    **
 **    ##  ###   ##   ##  ##  ##      ## ##      ##   ##   ##       ##        **
 **     #######   #####   ##   #####  ##  ##  ####    ##    #####   ##        **
 **           ##                                                    ##        **
 **                                                                           **
 **                                                ... make the atoms dance   **
 **                                                                           **
 **            Copyright (C) by CP2K developers group (2000-2025)             **
 **                      J. Chem. Phys. 152, 194103 (2020)                    **
 **                                                                           **
 *******************************************************************************

 DFT| Spin restricted Kohn-Sham (RKS) calculation                            RKS
 DFT| Multiplicity                                                             1
 DFT| Number of spin states                                                    1
 DFT| Charge                                                                   0
 DFT| Self-interaction correction (SIC)                                       NO
 DFT| Cutoffs: density                                              1.000000E-10
 DFT|          gradient                                             1.000000E-10
 DFT|          tau                                                  1.000000E-10
 DFT|          cutoff_smoothing_range                               0.000000E+00
 DFT| XC density smoothing                                                  NONE
 DFT| XC derivatives                                                          PW

 FUNCTIONAL| PBE:
 FUNCTIONAL| J.P.Perdew, K.Burke, M.Ernzerhof, Phys. Rev. Letter, vol. 77, n 18,
 FUNCTIONAL|  pp. 3865-3868, (1996)sx=0.750sc=1.000{spin unpolarized}           


 QS| Method:                                                                GAPW
 QS| Density plane wave grid type                        NON-SPHERICAL FULLSPACE
 QS| Number of grid levels:                                                    4
 QS| Density cutoff [a.u.]:                                                250.0
 QS| Multi grid cutoff [a.u.]: 1) grid level                               250.0
 QS|                           2) grid level                                83.3
 QS|                           3) grid level                                27.8
 QS|                           4) grid level                                 9.3
 QS| Grid level progression factor:                                          3.0
 QS| Relative density cutoff [a.u.]:                                        50.0
 QS| Interaction thresholds: eps_pgf_orb:                                1.0E-12
 QS|                         eps_filter_matrix:                          0.0E+00
 QS|                         eps_core_charge:                            1.0E-14
 QS|                         eps_rho_gspace:                             1.0E-12
 QS|                         eps_rho_rspace:                             1.0E-12
 QS|                         eps_gvg_rspace:                             1.0E-06
 QS|                         eps_ppl:                                    1.0E-02
 QS|                         eps_ppnl:                                   1.0E-08
 QS| GAPW|      One center basis from orbital basis primitives
 QS| GAPW|                   eps_fit:                                    1.0E-04
 QS| GAPW|                   eps_iso:                                    1.0E-12
 QS| GAPW|                   eps_svd:                                    1.0E-08
 QS| GAPW|                   eps_cpc:                                    1.0E-12
 QS| GAPW|   atom-r-grid: quadrature:                                     GC_LOG
 QS| GAPW|      atom-s-grid:  max l :                                          4
 QS| GAPW|      max_l_rho0 :                                                   2


 ATOMIC KIND INFORMATION

  1. Atomic kind: li                                    Number of atoms:       2

     Orbital Basis Set                                         aug-SZV-MOLOPT-ae

       Number of orbital shell sets:                                           2
       Number of orbital shells:                                               6
       Number of primitive Cartesian functions:                               12
       Number of Cartesian basis functions:                                   15
       Number of spherical basis functions:                                   14
       Norm type:                                                              2

       Normalised Cartesian orbitals:

                        Set   Shell   Orbital            Exponent    Coefficient

                          1       1    1s                0.031084       0.012700
                                                         0.067814       0.056364
                                                         0.156146       0.044301
                                                         0.405851      -0.012244
                                                         1.305830      -0.040912
                                                         6.597564      -0.038883

                          1       2    2s                0.031084       0.052890
                                                         0.067814      -0.000168
                                                         0.156146      -0.000256
                                                         0.405851       0.000043
                                                         1.305830       0.000104
                                                         6.597564       0.000000

                          1       3    2px               0.031084       0.001892
                                                         0.067814       0.021007
                                                         0.156146       0.058488
                                                         0.405851       0.080295
                                                         1.305830       0.074973
                                                         6.597564       0.056666
                          1       3    2py               0.031084       0.001892
                                                         0.067814       0.021007
                                                         0.156146       0.058488
                                                         0.405851       0.080295
                                                         1.305830       0.074973
                                                         6.597564       0.056666
                          1       3    2pz               0.031084       0.001892
                                                         0.067814       0.021007
                                                         0.156146       0.058488
                                                         0.405851       0.080295
                                                         1.305830       0.074973
                                                         6.597564       0.056666

                          1       4    3px               0.031084      -0.000945
                                                         0.067814       0.051077
                                                         0.156146      -0.000811
                                                         0.405851       0.008960
                                                         1.305830       0.038611
                                                         6.597564       0.000000
                          1       4    3py               0.031084      -0.000945
                                                         0.067814       0.051077
                                                         0.156146      -0.000811
                                                         0.405851       0.008960
                                                         1.305830       0.038611
                                                         6.597564       0.000000
                          1       4    3pz               0.031084      -0.000945
                                                         0.067814       0.051077
                                                         0.156146      -0.000811
                                                         0.405851       0.008960
                                                         1.305830       0.038611
                                                         6.597564       0.000000

                          1       5    3dx2              0.031084       0.000452
                                                         0.067814       0.006113
                                                         0.156146       0.034198
                                                         0.405851       0.019071
                                                         1.305830       0.147410
                                                         6.597564       0.000000
                          1       5    3dxy              0.031084       0.000782
                                                         0.067814       0.010588
                                                         0.156146       0.059232
                                                         0.405851       0.033031
                                                         1.305830       0.255321
                                                         6.597564       0.000000
                          1       5    3dxz              0.031084       0.000782
                                                         0.067814       0.010588
                                                         0.156146       0.059232
                                                         0.405851       0.033031
                                                         1.305830       0.255321
                                                         6.597564       0.000000
                          1       5    3dy2              0.031084       0.000452
                                                         0.067814       0.006113
                                                         0.156146       0.034198
                                                         0.405851       0.019071
                                                         1.305830       0.147410
                                                         6.597564       0.000000
                          1       5    3dyz              0.031084       0.000782
                                                         0.067814       0.010588
                                                         0.156146       0.059232
                                                         0.405851       0.033031
                                                         1.305830       0.255321
                                                         6.597564       0.000000
                          1       5    3dz2              0.031084       0.000452
                                                         0.067814       0.006113
                                                         0.156146       0.034198
                                                         0.405851       0.019071
                                                         1.305830       0.147410
                                                         6.597564       0.000000

                          2       1    1s              167.175846       0.303638
                                                        30.651508       0.458287
                                                         8.575187       0.601924
                                                         2.945808       0.593848
                                                         1.143944       0.328337
                                                         0.471139       0.052824

     RI Auxiliary Basis Set             RI_aug-SZV-MOLOPT-ae_N_RI_018_s_p_d_f_g_

       Number of orbital shell sets:                                           8
       Number of orbital shells:                                               8
       Number of primitive Cartesian functions:                                8
       Number of Cartesian basis functions:                                   19
       Number of spherical basis functions:                                   18
       Norm type:                                                              2

       Normalised Cartesian orbitals:

                        Set   Shell   Orbital            Exponent    Coefficient

                          1       1    1s                0.253689       0.254763

                          2       1    5px               0.257401       0.261338
                          2       1    5py               0.257401       0.261338
                          2       1    5pz               0.257401       0.261338

                          3       1    2s                0.742787       0.570241

                          4       1    8dx2              0.768670       1.038615
                          4       1    8dxy              0.768670       1.798934
                          4       1    8dxz              0.768670       1.798934
                          4       1    8dy2              0.768670       1.038615
                          4       1    8dyz              0.768670       1.798934
                          4       1    8dz2              0.768670       1.038615

                          5       1    6px               1.083889       1.576417
                          5       1    6py               1.083889       1.576417
                          5       1    6pz               1.083889       1.576417

                          6       1    7px               4.451553       9.216786
                          6       1    7py               4.451553       9.216786
                          6       1    7pz               4.451553       9.216786

                          7       1    3s                6.183616       2.794743

                          8       1    4s               31.308731       9.433203

       Atomic covalent radius [Angstrom]:                                  1.230

       Atomic van der Waals radius [Angstrom]:                             1.820

     The atoms of this atomic kind are PAW atoms (GAPW):
       Hard Gaussian function radius:                                      1.512
       Rho0 radius:                                                        1.512
       Maximum GTO radius used for PAW projector construction:            24.566

     GAPW Soft Basis Set                                  aug-SZV-MOLOPT-ae_soft

       Number of orbital shell sets:                                           2
       Number of orbital shells:                                               6
       Number of primitive Cartesian functions:                                8
       Number of Cartesian basis functions:                                   15
       Number of spherical basis functions:                                   14
       Norm type:                                                              2

       Normalised Cartesian orbitals:

                        Set   Shell   Orbital            Exponent    Coefficient

                          1       1    1s                0.031084       0.012700
                                                         0.067814       0.056364
                                                         0.156146       0.044301
                                                         0.405851      -0.012244
                                                         1.305830      -0.040912

                          1       2    2s                0.031084       0.052890
                                                         0.067814      -0.000168
                                                         0.156146      -0.000256
                                                         0.405851       0.000043
                                                         1.305830       0.000104

                          1       3    2px               0.031084       0.001892
                                                         0.067814       0.021007
                                                         0.156146       0.058488
                                                         0.405851       0.080295
                                                         1.305830       0.074973
                          1       3    2py               0.031084       0.001892
                                                         0.067814       0.021007
                                                         0.156146       0.058488
                                                         0.405851       0.080295
                                                         1.305830       0.074973
                          1       3    2pz               0.031084       0.001892
                                                         0.067814       0.021007
                                                         0.156146       0.058488
                                                         0.405851       0.080295
                                                         1.305830       0.074973

                          1       4    3px               0.031084      -0.000945
                                                         0.067814       0.051077
                                                         0.156146      -0.000811
                                                         0.405851       0.008960
                                                         1.305830       0.038611
                          1       4    3py               0.031084      -0.000945
                                                         0.067814       0.051077
                                                         0.156146      -0.000811
                                                         0.405851       0.008960
                                                         1.305830       0.038611
                          1       4    3pz               0.031084      -0.000945
                                                         0.067814       0.051077
                                                         0.156146      -0.000811
                                                         0.405851       0.008960
                                                         1.305830       0.038611

                          1       5    3dx2              0.031084       0.000452
                                                         0.067814       0.006113
                                                         0.156146       0.034198
                                                         0.405851       0.019071
                                                         1.305830       0.147410
                          1       5    3dxy              0.031084       0.000782
                                                         0.067814       0.010588
                                                         0.156146       0.059232
                                                         0.405851       0.033031
                                                         1.305830       0.255321
                          1       5    3dxz              0.031084       0.000782
                                                         0.067814       0.010588
                                                         0.156146       0.059232
                                                         0.405851       0.033031
                                                         1.305830       0.255321
                          1       5    3dy2              0.031084       0.000452
                                                         0.067814       0.006113
                                                         0.156146       0.034198
                                                         0.405851       0.019071
                                                         1.305830       0.147410
                          1       5    3dyz              0.031084       0.000782
                                                         0.067814       0.010588
                                                         0.156146       0.059232
                                                         0.405851       0.033031
                                                         1.305830       0.255321
                          1       5    3dz2              0.031084       0.000452
                                                         0.067814       0.006113
                                                         0.156146       0.034198
                                                         0.405851       0.019071
                                                         1.305830       0.147410

                          2       1    1s                2.945808       0.593848
                                                         1.143944       0.328337
                                                         0.471139       0.052824

     AE Potential information for                                            ALL

       Description:                                       All-electron potential
                                          Krack, Parrinello, PCCP 2, 2105 (2000)

       Gaussian exponent of the core charge distribution:               3.125000
       Electronic configuration (s p d ...):                           3   0   0


 MOLECULE KIND INFORMATION


 All atoms are their own molecule, skipping detailed information


 TOTAL NUMBERS AND MAXIMUM NUMBERS

  Total number of            - Atomic kinds:                                   1
                             - Atoms:                                          2
                             - Shell sets:                                     4
                             - Shells:                                        12
                             - Primitive Cartesian functions:                 24
                             - Cartesian basis functions:                     30
                             - Spherical basis functions:                     28

  Maximum angular momentum of the orbital basis functions:                     2


 MODULE QUICKSTEP: ATOMIC COORDINATES IN ANGSTROM

   Atom Kind Element         X             Y             Z       Z(eff)     Mass
      1    1 li    3     15.000000     15.000000     16.394718   3.0000   6.9410
      2    1 li    3     15.000000     15.000000     13.605282   3.0000   6.9410



 SCF PARAMETERS         Density guess:                                   RESTART
                        --------------------------------------------------------
                        max_scf:                                             500
                        max_scf_history:                                       0
                        max_diis:                                              4
                        --------------------------------------------------------
                        eps_scf:                                        1.00E-06
                        eps_scf_history:                                0.00E+00
                        eps_diis:                                       1.00E-01
                        eps_eigval:                                     1.00E-05
                        --------------------------------------------------------
                        level_shift [a.u.]:                             0.000000
                        --------------------------------------------------------
                        Outer loop SCF in use 
                        No variables optimised in outer loop
                        eps_scf                                         1.00E-06
                        max_scf                                               20
                        No outer loop optimization
                        step_size                                       5.00E-01

 PW_GRID| Information for grid number                                          1
 PW_GRID| Grid distributed over                                   192 processors
 PW_GRID| Real space group dimensions                                   192    1
 PW_GRID| the grid is blocked:                                                NO
 PW_GRID| Cutoff [a.u.]                                                    250.0
 PW_GRID| spherical cutoff:                                                   NO
 PW_GRID|   Bounds   1           -202     202                Points:         405
 PW_GRID|   Bounds   2           -202     202                Points:         405
 PW_GRID|   Bounds   3           -202     202                Points:         405
 PW_GRID| Volume element (a.u.^3)  0.2743E-02     Volume (a.u.^3)    182205.0337
 PW_GRID| Grid span                                                    FULLSPACE
 PW_GRID|   Distribution                         Average         Max         Min
 PW_GRID|   G-Vectors                           345990.2      346275      345870
 PW_GRID|   G-Rays                                 854.3         855         854
 PW_GRID|   Real Space Points                   345990.2      492075      328050

 PW_GRID| Information for grid number                                          2
 PW_GRID| Number of the reference grid                                         1
 PW_GRID| Grid distributed over                                   192 processors
 PW_GRID| Real space group dimensions                                   192    1
 PW_GRID| the grid is blocked:                                                NO
 PW_GRID| Cutoff [a.u.]                                                     83.3
 PW_GRID| spherical cutoff:                                                   NO
 PW_GRID|   Bounds   1           -120     119                Points:         240
 PW_GRID|   Bounds   2           -120     119                Points:         240
 PW_GRID|   Bounds   3           -120     119                Points:         240
 PW_GRID| Volume element (a.u.^3)  0.1318E-01     Volume (a.u.^3)    182205.0337
 PW_GRID| Grid span                                                    FULLSPACE
 PW_GRID|   Distribution                         Average         Max         Min
 PW_GRID|   G-Vectors                            72000.0       72240       71760
 PW_GRID|   G-Rays                                 300.0         301         299
 PW_GRID|   Real Space Points                    72000.0      115200       57600

 PW_GRID| Information for grid number                                          3
 PW_GRID| Number of the reference grid                                         1
 PW_GRID| Grid distributed over                                   192 processors
 PW_GRID| Real space group dimensions                                    12   16
 PW_GRID| the grid is blocked:                                                NO
 PW_GRID| Cutoff [a.u.]                                                     27.8
 PW_GRID| spherical cutoff:                                                   NO
 PW_GRID|   Bounds   1            -67      67                Points:         135
 PW_GRID|   Bounds   2            -67      67                Points:         135
 PW_GRID|   Bounds   3            -67      67                Points:         135
 PW_GRID| Volume element (a.u.^3)  0.7406E-01     Volume (a.u.^3)    182205.0337
 PW_GRID| Grid span                                                    FULLSPACE
 PW_GRID|   Distribution                         Average         Max         Min
 PW_GRID|   G-Vectors                            12814.5       12960       12690
 PW_GRID|   G-Rays                                  94.9          96          94
 PW_GRID|   Real Space Points                    12814.5       14580       11880

 PW_GRID| Information for grid number                                          4
 PW_GRID| Number of the reference grid                                         1
 PW_GRID| Grid distributed over                                   192 processors
 PW_GRID| Real space group dimensions                                    12   16
 PW_GRID| the grid is blocked:                                                NO
 PW_GRID| Cutoff [a.u.]                                                      9.3
 PW_GRID| spherical cutoff:                                                   NO
 PW_GRID|   Bounds   1            -40      39                Points:          80
 PW_GRID|   Bounds   2            -40      39                Points:          80
 PW_GRID|   Bounds   3            -40      39                Points:          80
 PW_GRID| Volume element (a.u.^3)  0.3559         Volume (a.u.^3)    182205.0337
 PW_GRID| Grid span                                                    FULLSPACE
 PW_GRID|   Distribution                         Average         Max         Min
 PW_GRID|   G-Vectors                             2666.7        2800        2560
 PW_GRID|   G-Rays                                  33.3          35          32
 PW_GRID|   Real Space Points                     2666.7        2800        2400

 POISSON| Solver                                                         WAVELET
 POISSON| Wavelet| Scaling function                                           40
 POISSON| Periodicity                                                       NONE

 RS_GRID| Information for grid number                                          1
 RS_GRID|   Bounds   1           -202     202                Points:         405
 RS_GRID|   Bounds   2           -202     202                Points:         405
 RS_GRID|   Bounds   3           -202     202                Points:         405
 RS_GRID| Real space distribution over                                  4 groups
 RS_GRID| Real space distribution along direction                              1
 RS_GRID| Border size                                                         35
 RS_GRID| Real space distribution over                                  6 groups
 RS_GRID| Real space distribution along direction                              2
 RS_GRID| Border size                                                         35
 RS_GRID| Real space distribution over                                  8 groups
 RS_GRID| Real space distribution along direction                              3
 RS_GRID| Border size                                                         35
 RS_GRID|   Distribution                         Average         Max         Min
 RS_GRID|   Planes                                 171.2         172         171
 RS_GRID|   Distribution                         Average         Max         Min
 RS_GRID|   Planes                                 137.5         138         137
 RS_GRID|   Distribution                         Average         Max         Min
 RS_GRID|   Planes                                 120.6         121         120

 RS_GRID| Information for grid number                                          2
 RS_GRID|   Bounds   1           -120     119                Points:         240
 RS_GRID|   Bounds   2           -120     119                Points:         240
 RS_GRID|   Bounds   3           -120     119                Points:         240
 RS_GRID| Real space distribution over                                  4 groups
 RS_GRID| Real space distribution along direction                              1
 RS_GRID| Border size                                                         37
 RS_GRID| Real space distribution over                                  6 groups
 RS_GRID| Real space distribution along direction                              2
 RS_GRID| Border size                                                         37
 RS_GRID| Real space distribution over                                  8 groups
 RS_GRID| Real space distribution along direction                              3
 RS_GRID| Border size                                                         37
 RS_GRID|   Distribution                         Average         Max         Min
 RS_GRID|   Planes                                 134.0         134         134
 RS_GRID|   Distribution                         Average         Max         Min
 RS_GRID|   Planes                                 114.0         114         114
 RS_GRID|   Distribution                         Average         Max         Min
 RS_GRID|   Planes                                 104.0         104         104

 RS_GRID| Information for grid number                                          3
 RS_GRID|   Bounds   1            -67      67                Points:         135
 RS_GRID|   Bounds   2            -67      67                Points:         135
 RS_GRID|   Bounds   3            -67      67                Points:         135
 RS_GRID| Real space fully replicated
 RS_GRID| Group size                                                           1

 RS_GRID| Information for grid number                                          4
 RS_GRID|   Bounds   1            -40      39                Points:          80
 RS_GRID|   Bounds   2            -40      39                Points:          80
 RS_GRID|   Bounds   3            -40      39                Points:          80
 RS_GRID| Real space fully replicated
 RS_GRID| Group size                                                           1

  HFX_INFO| Replica ID:                                                        1
  HFX_INFO| FRACTION:                                               0.2500000000
  HFX_INFO| Interaction Potential:                                       COULOMB
  HFX_INFO| EPS_SCHWARZ:                                                 1.0E-10
  HFX_INFO| EPS_SCHWARZ_FORCES                                           1.0E-08
  HFX_INFO| EPS_STORAGE_SCALING:                                         1.0E+00
  HFX_INFO| NBINS:                                                            64
  HFX_INFO| BLOCK_SIZE:                                                        1
  HFX_INFO| Number of periodic shells considered:                           NONE
  HFX_INFO| Number of periodic cells considered:                            NONE


 OVERLAP MATRIX CONDITION NUMBER
 1-Norm Condition Number (Estimate)
   CN : |A|*|A^-1|:  4.402E+000 *  1.132E+002   = 4.983E+002  Log(1-CN):  2.6975
 1-Norm and 2-Norm Condition Numbers using Diagonalization
   CN : |A|*|A^-1|:  4.402E+000 *  1.132E+002   = 4.983E+002  Log(1-CN):  2.6975
   CN : max/min ev:  3.759E+000 /  1.363E-002   = 2.757E+002  Log(2-CN):  2.4404

 Number of electrons:                                                          6
 Number of occupied orbitals:                                                  3
 Number of molecular orbitals:                                                 3

 Number of orbital functions:                                                 28
 Number of independent orbital functions:                                     28

 Extrapolation method: initial_guess

 *** WARNING in qs_initial_guess.F:306 :: User requested to restart the    ***
 *** wavefunction from the file named: MoS2-RESTART.wfn. This file does    ***
 *** not exist. Please check the existence of the file or change properly  ***
 *** the value of the keyword WFN_RESTART_FILE_NAME. Calculation continues ***
 *** using ATOMIC GUESS.                                                   ***


 Atomic guess: The first density matrix is obtained in terms of atomic orbitals
               and electronic configurations assigned to each atomic kind

 Guess for atomic kind: li

 Electronic structure
    Total number of core electrons                                          0.00
    Total number of valence electrons                                       3.00
    Total number of electrons                                               3.00
    Multiplicity                                                   not specified
    S      2.00  1.00


 *******************************************************************************
                  Iteration          Convergence                     Energy [au]
 *******************************************************************************
                          1        0.202411E-01                  -7.312657268297
                          2        0.138544E-02                  -7.312790799951
                          3        0.998413E-04                  -7.312791595344
                          4        0.135314E-06                  -7.312791602719

 Energy components [Hartree]           Total Energy ::           -7.312791602719
                                        Band Energy ::           -3.804143623497
                                     Kinetic Energy ::            7.228768871590
                                   Potential Energy ::          -14.541560474309
                                      Virial (-V/T) ::            2.011623380498
                                        Core Energy ::           -9.676221740042
                                          XC Energy ::           -1.669700551228
                                     Coulomb Energy ::            4.033130688551

 Orbital energies  State     L     Occupation   Energy[a.u.]          Energy[eV]

                       1     0          2.000      -1.849901          -50.338356
                       2     0          1.000      -0.104342           -2.839301


 Total Electron Density at R=0:                                        10.832580
 Re-scaling the density matrix to get the right number of electrons
                  # Electrons              Trace(P)               Scaling factor
                            6                 6.000                        1.000


 SCF WAVEFUNCTION OPTIMIZATION

  ----------------------------------- OT ---------------------------------------
  Minimizer      : CG                  : conjugate gradient
  Preconditioner : FULL_SINGLE_INVERSE : inversion of 
                                         H + eS - 2*(Sc)(c^T*H*c+const)(Sc)^T
  Precond_solver : DEFAULT
  Line search    : 3PNT                : 3 energies
  stepsize       :    0.08000000                  energy_gap     :    0.08000000
  eps_taylor     :   0.10000E-15                  max_taylor     :             4
  ----------------------------------- OT ---------------------------------------

  Step     Update method      Time    Convergence         Total energy    Change
  ------------------------------------------------------------------------------

  HFX_MEM_INFO| Est. max. program size before HFX [MiB]:                     491
  HFX_MEM_INFO| Number of cart. primitive ERI's calculated:            106279243
  HFX_MEM_INFO| Number of sph. ERI's calculated:                          230496
  HFX_MEM_INFO| Number of sph. ERI's stored in-core:                      230496
  HFX_MEM_INFO| Number of sph. ERI's stored on disk:                           0
  HFX_MEM_INFO| Number of sph. ERI's calculated on the fly:                    0
  HFX_MEM_INFO| Total memory consumption ERI's RAM [MiB]:                      7
  HFX_MEM_INFO| Whereof max-vals [MiB]:                                        6
  HFX_MEM_INFO| Total compression factor ERI's RAM:                         0.26
  HFX_MEM_INFO| Total memory consumption ERI's disk [MiB]:                     0
  HFX_MEM_INFO| Total compression factor ERI's disk:                        0.00
  HFX_MEM_INFO| Size of density/Fock matrix [MiB]:                             0
  HFX_MEM_INFO| Size of buffers [MiB]:                                         0
  HFX_MEM_INFO| Est. max. program size after HFX  [MiB]:                    1032

     1 OT CG       0.64E-01    3.2     0.85223439       -12.8992193222 -1.29E+01
     2 OT LS       0.90E-01    0.8                      -14.7152466118
     3 OT LS       0.59E-01    0.8                      -14.2269656391
     4 OT CG       0.47E-01    1.1     0.14524470       -14.7360770725 -1.84E+00
     5 OT LS       0.66E-01    0.8                      -14.7925245490
     6 OT LS       0.79E-01    0.8                      -14.8017986572
     7 OT CG       0.64E-01    1.1     0.06665366       -14.8037510494 -6.77E-02
     8 OT LS       0.89E-01    0.8                      -14.8197318441
     9 OT LS       0.97E-01    0.8                      -14.8217825011
    10 OT CG       0.78E-01    1.1     0.05284486       -14.8219117244 -1.82E-02
    11 OT LS       0.11E+00    0.8                      -14.8385670851
    12 OT LS       0.43E+00    0.8                      -14.8443023729
    13 OT CG       0.34E+00    1.1     0.07339520       -14.8658012304 -4.39E-02
    14 OT LS       0.17E+00    0.8                      -14.7746362693
    15 OT LS       0.11E+00    0.8                      -14.8821575553
    16 OT CG       0.87E-01    1.1     0.04079574       -14.8904567529 -2.47E-02
    17 OT LS       0.12E+00    0.8                      -14.9002254225
    18 OT LS       0.22E+00    0.8                      -14.9027855452
    19 OT CG       0.18E+00    1.1     0.02192043       -14.9058931780 -1.54E-02
    20 OT LS       0.25E+00    0.8                      -14.9109517124
    21 OT LS       0.31E+00    0.8                      -14.9118714948
    22 OT CG       0.25E+00    1.1     0.03403585       -14.9122073845 -6.31E-03
    23 OT LS       0.35E+00    0.8                      -14.9144770925
    24 OT LS       0.14E+00    0.8                      -14.9005960520
    25 OT CG       0.11E+00    1.1     0.00883726       -14.9195080995 -7.30E-03
    26 OT LS       0.15E+00    0.8                      -14.9201502233
    27 OT LS       0.39E+00    0.8                      -14.9203489061
    28 OT CG       0.31E+00    1.1     0.00925669       -14.9208490875 -1.34E-03
    29 OT LS       0.44E+00    0.8                      -14.9213235274
    30 OT LS       0.20E+00    0.8                      -14.9205149233
    31 OT CG       0.16E+00    1.1     0.00912167       -14.9215642081 -7.15E-04
    32 OT LS       0.22E+00    0.8                      -14.9223795366
    33 OT LS       0.30E+00    0.8                      -14.9225425660
    34 OT CG       0.24E+00    1.1     0.00524133       -14.9226168216 -1.05E-03
    35 OT LS       0.12E+00    0.8                      -14.9225944330
    36 OT LS       0.12E+00    0.8                      -14.9227509516
    37 OT CG       0.93E-01    1.1     0.00381894       -14.9227511744 -1.34E-04
    38 OT LS       0.13E+00    0.8                      -14.9228551017
    39 OT LS       0.52E+00    0.8                      -14.9228912488
    40 OT CG       0.42E+00    1.1     0.00342163       -14.9230842923 -3.33E-04
    41 OT LS       0.58E+00    0.8                      -14.9232978311
    42 OT LS       0.42E+00    0.8                      -14.9232635177
    43 OT CG       0.33E+00    1.1     0.00236974       -14.9232978312 -2.14E-04
    44 OT LS       0.17E+00    0.8                      -14.9231466399
    45 OT LS       0.85E-01    0.8                      -14.9232992977
    46 OT CG       0.68E-01    1.1     0.00074492       -14.9233178158 -2.00E-05
    47 OT LS       0.95E-01    0.8                      -14.9233204606
    48 OT LS       0.21E+00    0.8                      -14.9233212308
    49 OT CG       0.17E+00    1.1     0.00048591       -14.9233226704 -4.85E-06
    50 OT LS       0.23E+00    0.8                      -14.9233237787
    51 OT LS       0.13E+00    0.8                      -14.9233229925
    52 OT CG       0.10E+00    1.1     0.00028022       -14.9233239133 -1.24E-06
    53 OT LS       0.14E+00    0.8                      -14.9233245308
    54 OT LS       0.56E+00    0.8                      -14.9233247532
    55 OT CG       0.45E+00    1.1     0.00016880       -14.9233262388 -2.33E-06
    56 OT LS       0.63E+00    0.8                      -14.9233266256
    57 OT LS       0.34E+00    0.8                      -14.9233263492
    58 OT CG       0.27E+00    1.1     0.00015560       -14.9233266732 -4.34E-07
    59 OT LS       0.38E+00    0.8                      -14.9233267733
    60 OT LS       0.17E+00    0.9                      -14.9233265619
    61 OT CG       0.13E+00    1.1     0.00013340       -14.9233268411 -1.68E-07
    62 OT LS       0.18E+00    0.8                      -14.9233270213
    63 OT LS       0.74E+00    0.8                      -14.9233270837
    64 OT CG       0.59E+00    1.1     0.00008300       -14.9233274052 -5.64E-07
    65 OT LS       0.30E+00    0.8                      -14.9233271844
    66 OT LS       0.18E+00    0.8                      -14.9233274373
    67 OT CG       0.14E+00    1.1     0.00008525       -14.9233274587 -5.34E-08
    68 OT LS       0.20E+00    0.8                      -14.9233275204
    69 OT LS       0.24E+00    0.8                      -14.9233275301
    70 OT CG       0.19E+00    1.1     0.00006240       -14.9233275319 -7.32E-08
    71 OT LS       0.27E+00    0.8                      -14.9233275737
    72 OT LS       0.29E+00    0.8                      -14.9233275787
    73 OT CG       0.23E+00    1.1     0.00008360       -14.9233275789 -4.70E-08
    74 OT LS       0.32E+00    0.8                      -14.9233276351
    75 OT LS       0.20E+00    0.8                      -14.9233276135
    76 OT CG       0.16E+00    1.1     0.00002412       -14.9233276367 -5.79E-08
    77 OT LS       0.22E+00    0.8                      -14.9233276421
    78 OT LS       0.26E+00    0.8                      -14.9233276430
    79 OT CG       0.21E+00    1.1     0.00001527       -14.9233276431 -6.37E-09
    80 OT LS       0.29E+00    0.8                      -14.9233276440
    81 OT LS       0.14E+00    0.8                      -14.9233276427
    82 OT CG       0.11E+00    1.2     0.00001146       -14.9233276444 -1.33E-09
    83 OT LS       0.15E+00    0.8                      -14.9233276455
    84 OT LS       0.54E+00    0.8                      -14.9233276459
    85 OT CG       0.43E+00    1.1     0.00001319       -14.9233276474 -2.99E-09
    86 OT LS       0.22E+00    0.8                      -14.9233276442
    87 OT LS       0.14E+00    0.8                      -14.9233276482
    88 OT CG       0.12E+00    1.1     0.00001093       -14.9233276485 -1.05E-09
    89 OT LS       0.16E+00    0.8                      -14.9233276493
    90 OT LS       0.25E+00    0.8                      -14.9233276495
    91 OT CG       0.20E+00    1.1     0.00000428       -14.9233276497 -1.23E-09
    92 OT LS       0.27E+00    0.8                      -14.9233276499
    93 OT LS       0.28E+00    0.8                      -14.9233276499
    94 OT CG       0.22E+00    1.1     0.00000495       -14.9233276499 -2.15E-10
    95 OT LS       0.31E+00    0.8                      -14.9233276501
    96 OT LS       0.18E+00    0.8                      -14.9233276500
    97 OT CG       0.14E+00    1.1     0.00000276       -14.9233276501 -1.83E-10
    98 OT LS       0.20E+00    0.8                      -14.9233276502
    99 OT LS       0.39E+00    0.8                      -14.9233276502
   100 OT CG       0.31E+00    1.1     0.00000188       -14.9233276502 -1.25E-10
   101 OT LS       0.16E+00    0.8                      -14.9233276502
   102 OT LS       0.11E+00    0.8                      -14.9233276502
   103 OT CG       0.90E-01    1.1     0.00000132       -14.9233276502 -1.67E-11
   104 OT LS       0.13E+00    0.8                      -14.9233276502
   105 OT LS       0.45E+00    0.8                      -14.9233276502
   106 OT CG       0.36E+00    1.1     0.00000128       -14.9233276503 -3.30E-11
   107 OT LS       0.18E+00    0.8                      -14.9233276503
   108 OT LS       0.16E+00    0.8                      -14.9233276503
   109 OT CG       0.12E+00    1.1     0.00000104       -14.9233276503 -1.08E-11
   110 OT LS       0.17E+00    0.8                      -14.9233276503
   111 OT LS       0.28E+00    0.8                      -14.9233276503
   112 OT CG       0.22E+00    1.1     0.00000046       -14.9233276503 -1.28E-11

  *** SCF run converged in   112 steps ***


  Electronic density on regular grids:         -4.9687484436        1.0312515564
  Core density on regular grids:                6.0000000000        0.0000000000
  Hard and soft densities (Lebedev):           -6.1887929405       -5.1575413838
  Total Rho_soft + Rho1_hard - Rho1_soft       -6.0000000004
  Total charge density (r-space):              -0.0000000004
  Total Rho_soft + Rho0_soft (g-space):        -0.0000000499

  Overlap energy of the core charge distribution:               0.00000000000000
  Self energy of the core charge distribution:                -12.69426562982452
  Core Hamiltonian energy:                                      0.53731234130584
  Hartree energy:                                               3.07275381554165
  Exchange-correlation energy:                                 -1.67960807148195
  Hartree-Fock Exchange energy:                                -0.89022049695950

  GAPW| Exc from hard and soft atomic rho1:                    -1.08039298409019
  GAPW| local Eh = 1 center integrals:                         -2.18890662478046

  Total energy:                                               -14.92332765028913

  outer SCF iter =    1 RMS gradient =   0.46E-06 energy =        -14.9233276503
  outer SCF loop converged in   1 iterations or  112 steps


 !-----------------------------------------------------------------------------!
                     Mulliken Population Analysis

 #  Atom  Element  Kind  Atomic population                           Net charge
       1     li       1          3.000003                             -0.000003
       2     li       1          2.999997                              0.000003
 # Total charge                              6.000000                 -0.000000

 !-----------------------------------------------------------------------------!

 !-----------------------------------------------------------------------------!
                           Hirshfeld Charges

  #Atom  Element  Kind  Ref Charge     Population                    Net charge
      1       li     1       3.000          2.993                         0.007
      2       li     1       3.000          2.993                         0.007

  Total Charge                                                            0.013
 !-----------------------------------------------------------------------------!

 *******************************************************************************
 **                                                                           **
 **         ######## #######   #######   ######## #######  ########           **
 **            ##    ##     ## ##     ## ##       ##   ##     ##              **
 **            ##    ##     ## ##     ## ######   #######     ##              **
 **            ##    ##     ## ##     ## ##       ##          ##              **
 **            ##    #######   #######   ##       ##          ##              **
 **                                                                           **
 *******************************************************************************
 KERNEL|                                                                    FULL
 FUNCTIONAL| PBE:
 FUNCTIONAL| J.P.Perdew, K.Burke, M.Ernzerhof, Phys. Rev. Letter, vol. 77, n 18,
 FUNCTIONAL|  pp. 3865-3868, (1996)sx=0.750sc=1.000{spin unpolarized}           
 KERNEL|                                                          Exact Exchange
 KERNEL| Spin symmetry of excitations                                    Singlet
 TDDFPT| Number of states calculated                                          20
 TDDFPT| Number of Davidson iterations                                       100
 TDDFPT| Davidson iteration convergence                                0.367E-07
 TDDFPT| Max. number of Krylov space vectors                                5000
 TDDFPT| Molecular Orbitals:        Spin       AOs       Occ      Virt     Total
 TDDFPT|                               1        28         3        25        28
 
 -------------------------------------------------------------------------------
 -                            TDDFPT Initial Guess                             -
 -------------------------------------------------------------------------------
          State         Occupied      ->      Virtual          Excitation
          number         orbital              orbital          energy (eV)
 -------------------------------------------------------------------------------
             1                3                    4              2.39913
             2                3                    5              3.31205
             3                3                    6              3.31205
             4                3                    7              3.64831
             5                3                    8              5.00906
             6                3                    9              5.00906
             7                3                   10              6.55326
             8                3                   11              6.74196
             9                3                   12              8.18642
            10                3                   13              8.95292
            11                3                   14              8.95292
            12                3                   15              9.97974
            13                3                   16              9.97974
            14                3                   17             11.05989
            15                3                   18             11.91351
            16                3                   19             11.91351
            17                3                   20             13.71115
            18                3                   21             13.71115
            19                3                   22             14.21117
            20                3                   23             14.21117

      Number of active states:                                         75
 -------------------------------------------------------------------------------
 
 -------------------------------------------------------------------------------
 -                      TDDFPT WAVEFUNCTION OPTIMIZATION                       -
 -------------------------------------------------------------------------------

          Step            Time         Convergence           Conv. states
 -------------------------------------------------------------------------------

    State    Exc. energy (eV)      Convergence (eV)
        1       2.0595281            -3.3960E-01
        2       3.0971981            -2.1485E-01
        3       3.1526753            -1.5938E-01
        4       3.1526753            -4.9563E-01
        5       3.7608750            -1.2482E+00
        6       3.7608750            -1.2482E+00
        7       5.4095928            -1.1437E+00
        8       6.0075084            -7.3445E-01
        9       7.2044069            -9.8202E-01
       10       7.5357744            -1.4171E+00
       11       7.5357745            -1.4171E+00
       12       8.5818499            -1.3979E+00
       13       8.5818499            -1.3979E+00
       14       9.4642738            -1.5956E+00
       15      10.1859457            -1.7276E+00
       16      10.1859459            -1.7276E+00
       17      11.8104001            -1.9007E+00
       18      11.8104001            -1.9007E+00
       19      12.3730801            -1.8381E+00
       20      12.3730801            -1.8381E+00

             1            22.3          6.9851E-02                      0

    State    Exc. energy (eV)      Convergence (eV)
        1       2.0459631            -1.3565E-02
        2       3.0882244            -8.9737E-03
        3       3.1442208            -8.4545E-03
        4       3.1442208            -8.4545E-03
        5       3.7574471            -3.4279E-03
        6       3.7574471            -3.4279E-03
        7       5.4053189            -4.2739E-03
        8       6.0027308            -4.7775E-03
        9       7.1747440            -2.9663E-02
       10       7.5357543            -2.0066E-05
       11       7.5357544            -2.0066E-05
       12       8.5805910            -1.2589E-03
       13       8.5805910            -1.2589E-03
       14       9.4592880            -4.9858E-03
       15      10.1859410            -4.7571E-06
       16      10.1859411            -4.7571E-06
       17      11.8079033            -2.4968E-03
       18      11.8079033            -2.4968E-03
       19      12.3716217            -1.4584E-03
       20      12.3716217            -1.4584E-03

             2            22.3          1.0901E-03                      0

    State    Exc. energy (eV)      Convergence (eV)
        1       2.0459471            -1.5968E-05
        2       3.0882232            -1.2145E-06
        3       3.1442208            -1.7776E-08
        4       3.1442208            -1.7776E-08
        5       3.7574457            -1.3746E-06
        6       3.7574457            -1.3746E-06
        7       5.4053000            -1.8883E-05
        8       6.0027303            -5.8673E-07
        9       7.1745450            -1.9897E-04
       10       7.5357543            -6.0123E-10
       11       7.5357544            -6.0122E-10
       12       8.5805910            -2.7729E-09
       13       8.5805910            -2.7729E-09
       14       9.4592789            -9.0473E-06
       15      10.1859410            -1.7315E-10
       16      10.1859411            -1.7313E-10
       17      11.8078962            -7.0782E-06
       18      11.8078962            -7.0782E-06
       19      12.3716217            -3.1214E-09
       20      12.3716217            -3.1214E-09

             3            22.2          7.3119E-06                     11

    State    Exc. energy (eV)      Convergence (eV)
        1       2.0459471            -1.7657E-10
        2       3.0882232            -6.3078E-11
        3       3.1442208            -2.7190E-14
        4       3.1442208            -1.0196E-14
        5       3.7574457            -8.0587E-13
        6       3.7574457            -7.8548E-13
        7       5.4053000            -2.1673E-10
        8       6.0027303            -5.2040E-11
        9       7.1745450            -2.8463E-09
       10       7.5357543             7.5527E-15
       11       7.5357544            -7.5527E-15
       12       8.5805910             1.0574E-14
       13       8.5805910             3.0211E-15
       14       9.4592789            -1.0977E-09
       15      10.1859410             3.0211E-15
       16      10.1859411            -6.0421E-15
       17      11.8078962            -7.3039E-10
       18      11.8078962            -7.3041E-10
       19      12.3716217            -6.0421E-15
       20      12.3716217             3.0211E-15

             4            16.5          1.0460E-10                     20
 
 -------------------------------------------------------------------------------
 -  TDDFPT run converged in 4 iteration(s) 
 -------------------------------------------------------------------------------

 R-TDDFPT states of multiplicity 1
 Transition dipoles calculated using velocity formulation

         State    Excitation        Transition dipole (a.u.)        Oscillator
         number   energy (eV)       x           y           z     strength (a.u.)
         ------------------------------------------------------------------------
 TDDFPT|      1       2.04595  -2.3111E-15 -9.0622E-16  2.2257E+00   2.48301E-01
 TDDFPT|      2       3.08822  -2.4052E-13 -2.4293E-13 -1.8276E-06   2.52715E-13
 TDDFPT|      3       3.14422   1.5526E+00  6.8013E-01 -2.8583E-14   2.21332E-01
 TDDFPT|      4       3.14422  -6.8013E-01  1.5526E+00  1.3107E-13   2.21332E-01
 TDDFPT|      5       3.75745   3.1177E-06  1.7574E-06  2.9345E-14   1.17911E-12
 TDDFPT|      6       3.75745  -1.7574E-06  3.1177E-06 -8.8465E-14   1.17911E-12
 TDDFPT|      7       5.40530  -7.2831E-15 -7.1184E-15 -1.5166E-01   3.04599E-03
 TDDFPT|      8       6.00273   1.9871E-14  1.8664E-14  9.5800E-07   1.34969E-13
 TDDFPT|      9       7.17455   1.1121E-16  6.8699E-17  6.1181E-01   6.57948E-02
 TDDFPT|     10       7.53575   2.5908E-14  2.5776E-14 -6.2638E-14   9.70969E-28
 TDDFPT|     11       7.53575   2.5792E-14 -2.5924E-14 -3.3590E-15   2.48981E-28
 TDDFPT|     12       8.58059   2.3032E-01  2.0454E-01  9.6399E-14   1.99473E-02
 TDDFPT|     13       8.58059   2.0454E-01 -2.3032E-01 -4.5535E-15   1.99473E-02
 TDDFPT|     14       9.45928  -1.3047E-14 -1.2957E-14  1.1018E-06   2.81348E-13
 TDDFPT|     15      10.18594  -1.5872E-16  2.2591E-18  1.7677E-14   7.79873E-29
 TDDFPT|     16      10.18594   8.5793E-17 -1.6856E-16  1.8700E-15   8.81548E-31
 TDDFPT|     17      11.80790   2.1454E-08 -1.3277E-06  4.6642E-14   5.10079E-13
 TDDFPT|     18      11.80790  -1.3277E-06 -2.1454E-08 -2.8788E-13   5.10079E-13
 TDDFPT|     19      12.37162  -3.7175E-01 -3.5088E-01  1.2784E-12   7.92050E-02
 TDDFPT|     20      12.37162   3.5088E-01 -3.7175E-01  4.7738E-14   7.92050E-02

 TDDFPT : CheckSum  =  0.133579E+01
 
 -------------------------------------------------------------------------------
 -                            Excitation analysis                              -
 -------------------------------------------------------------------------------
        State             Occupied              Virtual             Excitation
        number             orbital              orbital             amplitude
 -------------------------------------------------------------------------------
             1   2.04595 eV
                                 3                    4               0.992480
                                 3                   12              -0.111922
             2   3.08822 eV
                                 3                    7               0.982101
                                 3                   11              -0.183866
             3   3.14422 eV
                                 3                    6               0.935308
                                 3                    5               0.341977
                                 3                   16              -0.085631
             4   3.14422 eV
                                 3                    5              -0.935308
                                 3                    6               0.341977
                                 3                   15               0.085631
             5   3.75745 eV
                                 3                    9              -0.953115
                                 3                    8               0.302329
             6   3.75745 eV
                                 3                    8              -0.953115
                                 3                    9              -0.302329
             7   5.40530 eV
                                 3                   10               0.983487
                                 3                   12              -0.178633
             8   6.00273 eV
                                 3                   11              -0.981811
                                 3                    7              -0.181635
                                 3                   17              -0.054373
             9   7.17455 eV
                                 3                   12               0.976220
                                 3                   10               0.173907
                                 3                    4               0.116009
            10   7.53575 eV
                                 3                   14               1.000000
            11   7.53575 eV
                                 3                   13               1.000000
            12   8.58059 eV
                                 3                   16               0.995561
                                 3                    6               0.089250
            13   8.58059 eV
                                 3                   15               0.995561
                                 3                    5               0.089250
            14   9.45928 eV
                                 3                   17              -0.997661
            15  10.18594 eV
                                 3                   19              -1.000000
            16  10.18594 eV
                                 3                   18               1.000000
            17  11.80790 eV
                                 3                   20              -0.736847
                                 3                   21               0.675936
            18  11.80790 eV
                                 3                   21               0.736847
                                 3                   20               0.675936
            19  12.37162 eV
                                 3                   23              -0.999534
            20  12.37162 eV
                                 3                   22              -0.999534
 -------------------------------------------------------------------------------
 
 -------------------------------------------------------------------------------
 -                            Natural Orbital analysis                         -
 -------------------------------------------------------------------------------
   STATE NR.      1             2.04595 eV
     Particle-Hole state: 1   Spin:1     Eigenvalue: 0.99997   Sum Eigv: 0.99997
   STATE NR.      2             3.08822 eV
     Particle-Hole state: 1   Spin:1     Eigenvalue: 0.99987   Sum Eigv: 0.99987
   STATE NR.      3             3.14422 eV
     Particle-Hole state: 1   Spin:1     Eigenvalue: 0.99987   Sum Eigv: 0.99987
   STATE NR.      4             3.14422 eV
     Particle-Hole state: 1   Spin:1     Eigenvalue: 0.99987   Sum Eigv: 0.99987
   STATE NR.      5             3.75745 eV
     Particle-Hole state: 1   Spin:1     Eigenvalue: 0.99995   Sum Eigv: 0.99995
   STATE NR.      6             3.75745 eV
     Particle-Hole state: 1   Spin:1     Eigenvalue: 0.99995   Sum Eigv: 0.99995
   STATE NR.      7             5.40530 eV
     Particle-Hole state: 1   Spin:1     Eigenvalue: 0.99998   Sum Eigv: 0.99998
   STATE NR.      8             6.00273 eV
     Particle-Hole state: 1   Spin:1     Eigenvalue: 0.99993   Sum Eigv: 0.99993
   STATE NR.      9             7.17455 eV
     Particle-Hole state: 1   Spin:1     Eigenvalue: 0.99995   Sum Eigv: 0.99995
   STATE NR.     10             7.53575 eV
     Particle-Hole state: 1   Spin:1     Eigenvalue: 1.00000   Sum Eigv: 1.00000
   STATE NR.     11             7.53575 eV
     Particle-Hole state: 1   Spin:1     Eigenvalue: 1.00000   Sum Eigv: 1.00000
   STATE NR.     12             8.58059 eV
     Particle-Hole state: 1   Spin:1     Eigenvalue: 0.99998   Sum Eigv: 0.99998
   STATE NR.     13             8.58059 eV
     Particle-Hole state: 1   Spin:1     Eigenvalue: 0.99998   Sum Eigv: 0.99998
   STATE NR.     14             9.45928 eV
     Particle-Hole state: 1   Spin:1     Eigenvalue: 0.99994   Sum Eigv: 0.99994
   STATE NR.     15            10.18594 eV
     Particle-Hole state: 1   Spin:1     Eigenvalue: 1.00000   Sum Eigv: 1.00000
   STATE NR.     16            10.18594 eV
     Particle-Hole state: 1   Spin:1     Eigenvalue: 1.00000   Sum Eigv: 1.00000
   STATE NR.     17            11.80790 eV
     Particle-Hole state: 1   Spin:1     Eigenvalue: 0.99997   Sum Eigv: 0.99997
   STATE NR.     18            11.80790 eV
     Particle-Hole state: 1   Spin:1     Eigenvalue: 0.99997   Sum Eigv: 0.99997
   STATE NR.     19            12.37162 eV
     Particle-Hole state: 1   Spin:1     Eigenvalue: 0.99998   Sum Eigv: 0.99998
   STATE NR.     20            12.37162 eV
     Particle-Hole state: 1   Spin:1     Eigenvalue: 0.99998   Sum Eigv: 0.99998
 -------------------------------------------------------------------------------

 ENERGY| Total FORCE_EVAL ( QS ) energy [hartree]            -14.923327650289128

 -------------------------------------------------------------------------------
 -                                                                             -
 -                                DBCSR STATISTICS                             -
 -                                                                             -
[...]
 qs_vxc_create                      112  8.0    0.001    0.001   16.263   16.264
 transfer_rs2pw                     945  9.8    0.025    0.036   15.299   15.582
 tddfpt_apply_xc_analytic            75  9.0    0.057    0.064   14.435   14.700
 integrate_four_center              262  9.6    5.681   11.550   13.828   13.918
 xc_pw_divergence                   113 10.7    0.004    0.005   12.635   12.961
 mp_sync                           1475 11.4    6.972   12.576    6.972   12.576
 transfer_pw2rs                     640 10.6    0.009    0.011   12.096   12.314
 integrate_v_rspace                 113  9.0    0.002    0.003   12.101   12.222
 xc_rho_set_and_dset_create         113 10.0    0.155    0.181    9.795   11.963
 grid_collocate_task_list           189  8.6   11.065   11.843   11.065   11.843
 prepare_gapw_den                   188  8.4    0.002    0.003   11.403   11.525
 potential_pw2rs                    113 10.0    0.025    0.033   11.367   11.493
 mp_waitany                       53578 12.1    9.808   10.595    9.808   10.595
 put_rho0_on_grid                   188  9.4    0.467    0.675    9.924   10.046
 transfer_rs2pw_250                 378 11.0    3.285    3.547    8.247    8.620
 xc_calc_2nd_deriv_analytical       225 10.0    0.404    0.432    8.583    8.609
 xc_vxc_pw_create                    38  9.0    0.118    0.167    8.317    8.317
 tddfpt_apply_hfx                     4  8.0    0.001    0.002    8.163    8.163
 transfer_pw2rs_250                 301 11.2    2.674    2.930    7.694    7.980
 mp_alltoall_d11v                  8101 11.8    5.500    7.966    5.500    7.966
 xc_exc_calc                         74  9.0    0.180    0.256    7.945    7.946
 tddft_hfx_matrix                   150  9.0    0.003    0.005    6.965    7.003
 integrate_vhg0_rspace              187  8.8    0.064    0.081    6.865    6.974
 hfx_ks_matrix                      112  8.0    0.004    0.004    6.872    6.950
 mp_sum_d                          3105  8.8    4.115    4.887    4.115    4.887
 sum_up_and_integrate                38  8.0    0.000    0.001    3.959    3.975
 transfer_rs2pw_30                  189 10.6    1.659    1.749    3.840    3.906
 dbcsr_multiply_generic            2004  9.9    0.080    0.086    3.486    3.543
 qs_scf_new_mos                     112  5.0    0.001    0.001    3.329    3.341
 qs_scf_loop_do_ot                  112  6.0    0.001    0.001    3.328    3.341
 init_scf_loop                        1  4.0    0.000    0.000    3.186    3.187
 ot_scf_mini                        112  7.0    0.001    0.002    3.122    3.134
 cp_dbcsr_sm_fm_multiply            499  8.4    0.010    0.011    2.954    2.999
 mp_waitall_1                    436434 13.3    2.316    2.990    2.316    2.990
 mp_sendrecv_dv                   72198 11.6    2.862    2.978    2.862    2.978
 cp2k_distribution_to_z_slices      187  9.8    1.090    1.277    2.645    2.873
 xc_functional_eval                 487 11.0    0.001    0.002    0.879    2.783
 pbe_lda_eval                       487 12.0    0.878    2.783    0.878    2.783
 pw_scatter_p                      1505 12.8    2.444    2.603    2.444    2.603
 dbcsr_complete_redistribute       1792 10.7    0.064    0.080    2.305    2.353
 transfer_pw2rs_30                  113 12.0    1.028    1.127    2.265    2.335
 mp_isend_dm3                      6490 12.1    0.534    2.322    0.534    2.322
 transfer_rs2pw_90                  189 10.6    0.560    0.642    2.078    2.298
 pw_gather_p                       1584 12.5    1.844    2.076    1.844    2.076
 rs_grid_zero                       790 11.3    1.975    2.063    1.975    2.063
 pw_derive                         1464 11.5    1.897    2.010    1.897    2.010
 multiply_cannon                   2004 10.9    0.202    0.210    1.800    1.911
 fft_wrap_pw1pw2_90                 302 11.1    0.055    0.120    1.674    1.887
 copy_dbcsr_to_fm                   645  9.6    0.008    0.009    1.732    1.746
 gaVxcgb_GC                         113  9.7    0.018    1.707    0.018    1.707
 mp_sum_dm                         1147  9.0    1.479    1.669    1.479    1.669
 transfer_pw2rs_90                  113 12.0    0.352    0.409    1.435    1.594
 pw_copy                           2290 10.8    1.447    1.519    1.447    1.519
 multiply_cannon_loop              2004 11.9    0.310    0.340    1.366    1.475
 qs_ot_get_p                        113  8.0    0.001    0.001    1.455    1.460
 copy_fm_to_dbcsr                  1145  9.7    0.005    0.005    1.394    1.440
 calculate_xc_2nd_deriv_atom         75  9.0    0.009    0.225    0.027    1.436
 calculate_rho_atom                 188  9.4    0.300    1.405    0.300    1.405
 pw_poisson_set                     188  9.8    0.005    0.006    1.308    1.334
 integrate_four_center_main         262 10.6    0.039    1.025    0.049    1.253
 mp_sum_dv                         5275 10.0    1.191    1.217    1.191    1.217
 integrate_four_center_bin        20654 11.6    0.010    1.213    0.010    1.213
 mp_alltoall_i11v                  6133 11.7    1.185    1.186    1.185    1.186
 qs_ot_p2m_diag                     112  9.0    0.003    0.003    1.158    1.164
 transfer_rs2pw_10                  189 10.6    0.427    0.453    1.108    1.125
 mp_isendrecv_dv                 143250 12.0    0.651    1.124    0.651    1.124
 mp_isend_dv                     136445 13.3    0.590    1.066    0.590    1.066
 pw_copy_to_array                  1584 12.5    0.808    1.065    0.808    1.065
 ot_mini                            112  8.0    0.001    0.001    1.053    1.060
 make_m2s                          4008 10.9    0.063    0.068    0.975    1.009
 qs_ot_get_derivative                38  9.0    0.000    0.000    0.961    0.963
 pw_integral_ab_c1d_c1d_gs          187  9.8    0.684    0.691    0.872    0.917
 dbcsr_desymmetrize_deep            646 10.6    0.016    0.018    0.801    0.813
 calculate_vxc_atom                 112  8.0    0.014    0.165    0.812    0.812
 make_images                       4008 11.9    0.188    0.194    0.770    0.794
 cp_dbcsr_sm_fm_multiply_core       499  9.4    0.001    0.001    0.743    0.772
 cp_dbcsr_syevd                     112 10.0    0.006    0.007    0.748    0.751
 rs_gather_matrices                 113 10.0    0.001    0.006    0.692    0.738
 transfer_pw2rs_10                  113 12.0    0.266    0.343    0.693    0.726
 qs_ot_get_derivative_diag           37 10.0    0.001    0.001    0.716    0.717
 mp_irecv_dm3                      6490 12.1    0.333    0.687    0.333    0.687
 grid_integrate_task_list           113 10.0    0.039    0.684    0.039    0.684
 calculate_rho_atom_coeff           189  7.6    0.016    0.038    0.683    0.683
 pw_axpy                           1583 10.1    0.621    0.665    0.621    0.665
 pw_poisson_rebuild                 187  9.8    0.000    0.000    0.612    0.632
 ps_wavelet_create                    1 10.0    0.000    0.000    0.612    0.632
 RS_z_slice_distribution              1 11.0    0.521    0.586    0.612    0.632
 pw_copy_from_array                1505 12.8    0.518    0.630    0.518    0.630
 mp_max_i                           640  4.4    0.519    0.616    0.519    0.616
 fft_wrap_pw1pw2_30                 302 11.1    0.010    0.010    0.576    0.610
 tddfpt_orthonormalize_psi1_psi       5  6.8    0.005    0.005    0.598    0.598
 pw_zero                           1579 10.5    0.529    0.573    0.529    0.573
 mp_alltoall_z11v                   604 14.1    0.531    0.569    0.531    0.569
 offload_free_buffer                195  9.5    0.473    0.567    0.473    0.567
 tddfpt_print_nto_analysis            1  6.0    0.002    0.003    0.499    0.508
 multiply_cannon_metrocomm3       48096 12.9    0.144    0.150    0.385    0.497
 tddfpt_apply_energy_diff             4  8.0    0.000    0.000    0.483    0.484
 mp_sum_l                          9145 10.5    0.447    0.476    0.447    0.476
 Vh_1c_gg_integrals                 187  8.8    0.010    0.216    0.407    0.462
 cp_fm_syevd                        158 10.0    0.001    0.001    0.455    0.457
 hybrid_alltoall_any               4654 13.6    0.040    0.044    0.445    0.455
 cp_dbcsr_plus_fm_fm_t               76  9.0    0.001    0.001    0.440    0.444
 qs_ot_get_orbitals                 112  8.0    0.000    0.000    0.421    0.424
 calc_screening_functions             1 10.0    0.278    0.327    0.345    0.403
 integrate_four_center_getP         262 10.6    0.073    0.078    0.363    0.379
 make_images_sizes                 4008 12.9    0.004    0.005    0.350    0.360
 mp_alltoall_i44                   4008 13.9    0.346    0.356    0.346    0.356
 integrate_four_center_dist_KS      262 10.6    0.073    0.078    0.352    0.355
 yz_to_xz                           226 14.0    0.021    0.025    0.284    0.316
 update_ks_atom                     187  8.4    0.011    0.023    0.136    0.315
 scale_and_distribute               374 10.8    0.256    0.313    0.256    0.313
 mp_bcast_dm                        863  9.7    0.129    0.309    0.129    0.309
 mp_alltoall_i22                   2475 11.7    0.250    0.309    0.250    0.309
 tddfpt_compute_residual_vects        3  7.0    0.000    0.000    0.305    0.305
 multiply_cannon_metrocomm4       46092 12.9    0.138    0.150    0.268    0.299
 xz_to_yz                           378 12.6    0.024    0.031    0.293    0.298
 cp_fm_redistribute_end             158 11.0    0.183    0.283    0.189    0.289
 fft_wrap_pw1pw2_10                 302 11.1    0.003    0.003    0.277    0.282
 init_scf_run                         1  3.0    0.000    0.000    0.273    0.273
 scf_env_initial_rho_setup            1  4.0    0.000    0.000    0.272    0.272
 multiply_cannon_metrocomm2       42084 12.9    0.126    0.138    0.232    0.261
 tddfpt_construct_ground_state_       1  6.0    0.000    0.000    0.244    0.245
 mp_rank_compare                   3089 13.6    0.209    0.217    0.209    0.217
 calculate_dm_sparse                113  7.0    0.000    0.000    0.210    0.212
 qs_init_subsys                       1  2.0    0.008    0.013    0.204    0.204
 cp_fm_syevd_base                   158 11.0    0.098    0.199    0.098    0.199
 qs_env_setup                         1  3.0    0.000    0.000    0.192    0.195
 qs_env_rebuild_pw_env                2  3.5    0.000    0.000    0.191    0.194
 prepare_dr1dr                      225 11.0    0.122    0.194    0.122    0.194
 pw_env_rebuild                       1  5.0    0.001    0.001    0.191    0.194
 pw_grid_setup                        4  6.0    0.000    0.000    0.183    0.185
 pw_grid_setup_internal               4  7.0    0.004    0.005    0.183    0.185
 cp_fm_redistribute_start           158 11.0    0.133    0.137    0.167    0.171
 cp_fm_geeig                         20  7.0    0.001    0.001    0.154    0.154
 dbcsr_finalize                    5131 11.3    0.025    0.032    0.115    0.151
 dbcsr_create_new                 35720 12.3    0.106    0.111    0.141    0.149
 create_kernel_env                    1  6.0    0.000    0.000    0.118    0.146
 xc_prep_2nd_deriv                    1  7.0    0.000    0.000    0.118    0.146
 mp_allgather_i34                  2004 11.9    0.132    0.144    0.132    0.144
 dbcsr_make_images_dense           2700 11.9    0.037    0.040    0.103    0.143
 make_images_data                  4008 12.9    0.045    0.057    0.094    0.139
 multiply_cannon_metrocomm1       48096 12.9    0.053    0.055    0.101    0.139
 mp_cart_sub                       1294 11.6    0.137    0.138    0.137    0.138
 powell_optimize                  47667 11.0    0.119    0.132    0.119    0.132
 parallel_gemm_fm                   649  8.3    0.001    0.001    0.117    0.130
 parallel_gemm_fm_gemm              649  9.3    0.001    0.001    0.116    0.129
 cp_fm_gemm                         649 10.3    0.116    0.128    0.116    0.128
 qs_energies_init_hamiltonians        1  3.0    0.000    0.000    0.123    0.123
 mp_irecv_dv                     136181 13.3    0.094    0.114    0.094    0.114
 build_core_hamiltonian_matrix        1  4.0    0.000    0.000    0.113    0.113
 pw_grid_sort                         4  8.0    0.049    0.070    0.076    0.112
 overlap_condnum                      1  5.0    0.000    0.000    0.111    0.111
 dbcsr_make_dense_low              6485 12.8    0.032    0.034    0.049    0.105
 rs_scatter_matrices                189  8.6    0.001    0.003    0.100    0.103
 calc_pair_dist_radii                 1 10.0    0.044    0.045    0.097    0.099
 mp_cart_create                     837 11.1    0.089    0.092    0.089    0.093
 multiply_cannon_multrec          48096 12.9    0.061    0.083    0.069    0.092
 dbcsr_merge_all                   4407 12.3    0.052    0.066    0.064    0.085
 mp_isend_iv                      95987 13.9    0.075    0.085    0.075    0.085
 ot_new_cg_direction                 38  9.0    0.000    0.001    0.083    0.084
 cube_transpose_2                   378 12.6    0.008    0.009    0.075    0.081
 dbcsr_special_finalize            8016 12.9    0.020    0.021    0.064    0.077
 arnoldi_extremal                   113  9.0    0.002    0.003    0.072    0.076
 apply_preconditioner_dbcsr          39 10.0    0.000    0.000    0.070    0.075
 apply_single                        39 11.0    0.000    0.000    0.070    0.075
 cp_fm_trace_a1b1t1_aa             3060  7.9    0.015    0.016    0.074    0.075
 arnoldi_normal_ev                  114 10.0    0.002    0.003    0.071    0.074
 integrate_four_center_load         262 10.6    0.001    0.001    0.069    0.074
 hfx_load_balance                     1 11.0    0.000    0.000    0.069    0.073
 xc_2nd_deriv_of_r                  150 10.0    0.000    0.013    0.001    0.071
 dbcsr_iterator_start             29586 12.2    0.029    0.056    0.035    0.067
 dbcsr_new_transposed               863 10.8    0.005    0.005    0.064    0.066
 vxc_of_r_new                       224  9.0    0.000    0.005    0.001    0.065
 dbcsr_destroy                    34692 11.4    0.045    0.048    0.059    0.064
 create_qs_kind_set                   1  2.0    0.000    0.000    0.056    0.064
 read_qs_kind                         1  3.0    0.014    0.025    0.056    0.064
 calculate_rho0_atom                188  9.4    0.061    0.063    0.061    0.063
 hfx_load_balance_range               1 12.0    0.000    0.000    0.057    0.062
 make_dense_data                   6485 13.8    0.003    0.024    0.003    0.058
 rs_grid_create                     193  9.7    0.001    0.001    0.010    0.058
 pw_scale                           302  9.5    0.049    0.057    0.049    0.057
 offload_create_buffer              195 10.7    0.009    0.057    0.009    0.057
 mp_sum_b                          2701 10.9    0.052    0.055    0.052    0.055
 scf_post_calculation_gpw             1  3.0    0.000    0.000    0.055    0.055
 write_available_results              1  4.0    0.000    0.000    0.054    0.054
 write_mo_free_results                1  5.0    0.003    0.005    0.054    0.054
 pw_grid_remap                        4  8.0    0.003    0.005    0.050    0.053
 dbcsr_redistribute                  37 12.0    0.001    0.002    0.050    0.051
 dbcsr_data_release              169990 13.1    0.043    0.050    0.043    0.050
 mp_sum_im3                           4  9.0    0.047    0.050    0.047    0.050
 parser_read_line                  2085  4.0    0.001    0.001    0.042    0.050
 parser_read_line_low                 5  5.0    0.005    0.023    0.042    0.049
 mp_irecv_iv                      95497 13.9    0.042    0.048    0.042    0.048
 tddfpt_orthogonalize_psi1_psi0       5  6.8    0.000    0.000    0.038    0.047
 mp_cart_rank                    144032 10.3    0.039    0.046    0.039    0.046
 dbcsr_data_new                  103988 12.9    0.040    0.046    0.040    0.046
 cube_transpose_1                   226 14.0    0.004    0.005    0.041    0.045
 broadcast_input_information          5  6.0    0.007    0.013    0.037    0.045
 dbcsr_iterator_stop              29586 12.2    0.022    0.037    0.027    0.043
 sort_shells                          4  9.0    0.027    0.042    0.027    0.042
 dbcsr_work_create                13106 12.4    0.026    0.028    0.036    0.040
 mp_maxloc_dv                      1341  1.0    0.037    0.040    0.037    0.040
 setup_buffer_matrices             4008 11.9    0.012    0.013    0.036    0.040
 dbcsr_make_dense                  1085 11.1    0.004    0.005    0.024    0.039
 copy_fm_to_dbcsr_bc               1145 10.7    0.012    0.013    0.032    0.038
 arnoldi_conjugate_gradient           5  6.0    0.001    0.001    0.038    0.038
 tddfpt_compute_ritz_vects            4  7.0    0.002    0.002    0.037    0.037
 mp_sum_iv                          844  9.5    0.031    0.037    0.031    0.037
 calculate_first_density_matrix       1  5.0    0.000    0.001    0.036    0.037
 dbcsr_dot                          377  8.7    0.002    0.003    0.033    0.037
 dbcsr_work_destroy_all           13106 13.3    0.023    0.026    0.031    0.036
 dbcsr_sym_matrix_vector_mult       225  8.1    0.004    0.004    0.022    0.035
 dbcsr_matrix_vector_mult           325 12.0    0.003    0.003    0.017    0.034
 prepare_preconditioner               1  5.0    0.000    0.000    0.034    0.034
 make_preconditioner                  1  6.0    0.000    0.000    0.034    0.034
 dbcsr_add_d                        536  9.0    0.001    0.001    0.004    0.033
 dbcsr_make_undense                1085 11.1    0.007    0.015    0.013    0.033
 dbcsr_add_anytype                  536 10.0    0.001    0.005    0.003    0.032
 build_subspace                     114 11.0    0.002    0.002    0.031    0.032
 quick_finalize                    5942 13.9    0.013    0.017    0.022    0.030
 arnoldi_init                       114 11.0    0.001    0.001    0.026    0.029
 dbcsr_mm_multrec_init             2004 11.9    0.003    0.004    0.026    0.029
 dbcsr_copy                        3691 10.0    0.012    0.013    0.027    0.029
 write_mo_set_to_restart            112  5.0    0.002    0.007    0.026    0.027
 make_full_single_inverse             1  7.0    0.000    0.000    0.027    0.027
 dbcsr_make_untransposed_blocks    2680 10.9    0.015    0.016    0.024    0.026
 hirshfeld_integration                1  6.0    0.001    0.004    0.026    0.026
 dbcsr_mm_csr_init                 2004 12.9    0.018    0.020    0.023    0.025
 pw_grid_assign                       4  8.0    0.015    0.024    0.023    0.025
 mp_bcast_i_src                      20  7.0    0.021    0.025    0.021    0.025
 calculate_hirshfeld_normalizat       1  6.0    0.001    0.004    0.023    0.024
 mp_comm_split                      158 12.0    0.022    0.023    0.022    0.023
 tddfpt_dipole_operator               1  5.0    0.000    0.001    0.022    0.022
 dbcsr_make_index_exist           35720 13.3    0.020    0.022    0.020    0.022
 dbcsr_col_vec_to_rep_row           550 11.4    0.004    0.004    0.009    0.022
 dbcsr_merge_single_wm             2757 13.7    0.014    0.015    0.016    0.022
 dbcsr_switch_data_area           16176 13.7    0.015    0.016    0.020    0.021
 cp_fm_cholesky_decompose            23  7.9    0.021    0.021    0.021    0.021
 -------------------------------------------------------------------------------

 The number of warnings for this run is : 2
 
 -------------------------------------------------------------------------------
  **** **** ******  **  PROGRAM ENDED AT                 2025-04-20 13:39:34.485
 ***** ** ***  *** **   PROGRAM RAN ON                              i02r01c02s07
 **    ****   ******    PROGRAM RAN BY                                   di38fab
 ***** **    ** ** **   PROGRAM PROCESS ID                               1935224
  **** **  *******  **  PROGRAM STOPPED IN /hppfs/scratch/04/di38fab/05_MOL/W4-1
                                           1+ALK/li2/SZV/TDDFT/1e-4
