 DBCSR| CPU Multiplication driver                                           BLAS (U)
 DBCSR| Multrec recursion limit                                              512 (U)
 DBCSR| Multiplication stack size                                           1000 (D)
 DBCSR| Maximum elements for images                                    UNLIMITED (U)
 DBCSR| Multiplicative factor virtual images                                   1 (U)
 DBCSR| Use multiplication densification                                       T (D)
 DBCSR| Multiplication size stacks                                             3 (U)
 DBCSR| Use memory pool for CPU allocation                                     F (U)
 DBCSR| Number of 3D layers                                               SINGLE (U)
 DBCSR| Use MPI memory allocation                                              F (U)
 DBCSR| Use RMA algorithm                                                      F (U)
 DBCSR| Use Communication thread                                               T (U)
 DBCSR| Communication thread load                                             45 (D)
 DBCSR| MPI: My process id                                                     0
 DBCSR| MPI: Number of processes                                             128
 DBCSR| OMP: Current number of threads                                        12
 DBCSR| OMP: Max number of threads                                            12
 DBCSR| Split modifier for TAS multiplication algorithm                  1.0E+00 (U)


  **** **** ******  **  PROGRAM STARTED AT               2025-04-14 05:12:24.207
 ***** ** ***  *** **   PROGRAM STARTED ON                          i03r09c02s12
 **    ****   ******    PROGRAM STARTED BY                               di38fab
 ***** **    ** ** **   PROGRAM PROCESS ID                               2155182
  **** **  *******  **  PROGRAM STARTED IN /hppfs/scratch/04/di38fab/05_MOL/aUKB
                                           qsEOTmq69kFe5R_nOg/5k_set_final_qzvp/
                                           ABEGEU/aug-cc-pVQZ/TDDFT

 CP2K| version string:                 CP2K version 2025.1 (Development Version)
 CP2K| source code revision number:                             unknown revision
 CP2K| cp2kflags: omp libint fftw3 libxc parallel scalapack max_contr=4         
 CP2K| is freely available from                            https://www.cp2k.org/
 CP2K| Program compiled at                         Thu Apr 10 16:20:23 CEST 2025
 CP2K| Program compiled on                                               login01
 CP2K| Program compiled for                                        Supermuc-foss
 CP2K| Data directory path                  /hppfs/work/pn36zo/di38fab/cp2k/data
 CP2K| Input file name                                                    GW.inp

 GLOBAL| Force Environment number                                              1
 GLOBAL| Basis set file name            /hppfs/scratch/04/di38fab/04_TMD/BASIS_A
 GLOBAL| Potential file name            /hppfs/work/pn36zo/di38fab/cp2k/data/ALL
 GLOBAL| MM Potential file name                                     MM_POTENTIAL
 GLOBAL| Coordinate file name                                      __STD_INPUT__
 GLOBAL| Method name                                                        CP2K
 GLOBAL| Project name                                                       MoS2
 GLOBAL| Run type                                                         ENERGY
 GLOBAL| FFT library                                                       FFTW3
 GLOBAL| Diagonalization library                                       ScaLAPACK
 GLOBAL| DGEMM library                                                      BLAS
 GLOBAL| Orthonormality check for eigenvectors                          DISABLED
 GLOBAL| Matrix multiplication library                                 ScaLAPACK
 GLOBAL| All-to-all communication in single precision                          F
 GLOBAL| FFTs using library dependent lengths                                  F
 GLOBAL| Grid backend                                                       AUTO
 GLOBAL| Global print level                                               MEDIUM
 GLOBAL| MPI I/O enabled                                                       T
 GLOBAL| Total number of message passing processes                           128
 GLOBAL| Number of threads for this process                                   12
 GLOBAL| This output is from process                                           0
 GLOBAL| OpenMP stack size per thread (OMP_STACKSIZE)                    default
 GLOBAL| CPU model name             Intel(R) Xeon(R) Platinum 8174 CPU @ 3.10GHz

 MEMORY| system memory details [Kb]
 MEMORY|                        rank 0           min           max       average
 MEMORY| MemTotal             98436660      98436660      98436708      98436663
 MEMORY| MemFree              86065548      85941940      86323052      86207791
 MEMORY| Buffers                     0             0             0             0
 MEMORY| Cached                2327720       2327720       2361600       2338790
 MEMORY| Slab                  1064100        986396       1081848       1024914
 MEMORY| SReclaimable           253872        225740        261128        239076
 MEMORY| MemLikelyFree        88647140      88541292      88892344      88785658


 *** Fundamental physical constants (SI units) ***

 *** Literature: B. J. Mohr and B. N. Taylor,
 ***             CODATA recommended values of the fundamental physical
 ***             constants: 2006, Web Version 5.1
 ***             http://physics.nist.gov/constants

 Speed of light in vacuum [m/s]                             2.99792458000000E+08
 Magnetic constant or permeability of vacuum [N/A**2]       1.25663706143592E-06
 Electric constant or permittivity of vacuum [F/m]          8.85418781762039E-12
 Planck constant (h) [J*s]                                  6.62606896000000E-34
 Planck constant (h-bar) [J*s]                              1.05457162825177E-34
 Elementary charge [C]                                      1.60217648700000E-19
 Electron mass [kg]                                         9.10938215000000E-31
 Electron g factor [ ]                                     -2.00231930436220E+00
 Proton mass [kg]                                           1.67262163700000E-27
 Fine-structure constant                                    7.29735253760000E-03
 Rydberg constant [1/m]                                     1.09737315685270E+07
 Avogadro constant [1/mol]                                  6.02214179000000E+23
 Boltzmann constant [J/K]                                   1.38065040000000E-23
 Atomic mass unit [kg]                                      1.66053878200000E-27
 Bohr radius [m]                                            5.29177208590000E-11

 *** Conversion factors ***

 [u] -> [a.u.]                                              1.82288848426455E+03
 [Angstrom] -> [Bohr] = [a.u.]                              1.88972613288564E+00
 [a.u.] = [Bohr] -> [Angstrom]                              5.29177208590000E-01
 [a.u.] -> [s]                                              2.41888432650478E-17
 [a.u.] -> [fs]                                             2.41888432650478E-02
 [a.u.] -> [J]                                              4.35974393937059E-18
 [a.u.] -> [N]                                              8.23872205491840E-08
 [a.u.] -> [K]                                              3.15774647902944E+05
 [a.u.] -> [kJ/mol]                                         2.62549961709828E+03
 [a.u.] -> [kcal/mol]                                       6.27509468713739E+02
 [a.u.] -> [Pa]                                             2.94210107994716E+13
 [a.u.] -> [bar]                                            2.94210107994716E+08
 [a.u.] -> [atm]                                            2.90362800883016E+08
 [a.u.] -> [eV]                                             2.72113838565563E+01
 [a.u.] -> [Hz]                                             6.57968392072181E+15
 [a.u.] -> [1/cm] (wave numbers)                            2.19474631370540E+05
 [a.u./Bohr**2] -> [1/cm]                                   5.14048714338585E+03
 

 CELL_TOP| Volume [angstrom^3]:                                     27000.000000
 CELL_TOP| Vector a [angstrom    30.000     0.000     0.000   |a| =    30.000000
 CELL_TOP| Vector b [angstrom     0.000    30.000     0.000   |b| =    30.000000
 CELL_TOP| Vector c [angstrom     0.000     0.000    30.000   |c| =    30.000000
 CELL_TOP| Angle (b,c), alpha [degree]:                                90.000000
 CELL_TOP| Angle (a,c), beta  [degree]:                                90.000000
 CELL_TOP| Angle (a,b), gamma [degree]:                                90.000000
 CELL_TOP| Numerically orthorhombic:                                         YES
 CELL_TOP| Periodicity                                                      NONE

 GENERATE|  Preliminary Number of Bonds generated:                             0
 GENERATE|  Achieved consistency in connectivity generation.

 CELL| Volume [angstrom^3]:                                         27000.000000
 CELL| Vector a [angstrom]:      30.000     0.000     0.000   |a| =    30.000000
 CELL| Vector b [angstrom]:       0.000    30.000     0.000   |b| =    30.000000
 CELL| Vector c [angstrom]:       0.000     0.000    30.000   |c| =    30.000000
 CELL| Angle (b,c), alpha [degree]:                                    90.000000
 CELL| Angle (a,c), beta  [degree]:                                    90.000000
 CELL| Angle (a,b), gamma [degree]:                                    90.000000
 CELL| Numerically orthorhombic:                                             YES
 CELL| Periodicity                                                          NONE

 CELL_REF| Volume [angstrom^3]:                                     27000.000000
 CELL_REF| Vector a [angstrom    30.000     0.000     0.000   |a| =    30.000000
 CELL_REF| Vector b [angstrom     0.000    30.000     0.000   |b| =    30.000000
 CELL_REF| Vector c [angstrom     0.000     0.000    30.000   |c| =    30.000000
 CELL_REF| Angle (b,c), alpha [degree]:                                90.000000
 CELL_REF| Angle (a,c), beta  [degree]:                                90.000000
 CELL_REF| Angle (a,b), gamma [degree]:                                90.000000
 CELL_REF| Numerically orthorhombic:                                         YES
 CELL_REF| Periodicity                                                      NONE

 *******************************************************************************
 *******************************************************************************
 **                                                                           **
 **     #####                         ##              ##                      **
 **    ##   ##            ##          ##              ##                      **
 **   ##     ##                       ##            ######                    **
 **   ##     ##  ##   ##  ##   #####  ##  ##   ####   ##    #####    #####    **
 **   ##     ##  ##   ##  ##  ##      ## ##   ##      ##   ##   ##  ##   ##   **
 **   ##  ## ##  ##   ##  ##  ##      ####     ###    ##   ######   ######    **
 **    ##  ###   ##   ##  ##  ##      ## ##      ##   ##   ##       ##        **
 **     #######   #####   ##   #####  ##  ##  ####    ##    #####   ##        **
 **           ##                                                    ##        **
 **                                                                           **
 **                                                ... make the atoms dance   **
 **                                                                           **
 **            Copyright (C) by CP2K developers group (2000-2025)             **
 **                      J. Chem. Phys. 152, 194103 (2020)                    **
 **                                                                           **
 *******************************************************************************

 DFT| Spin restricted Kohn-Sham (RKS) calculation                            RKS
 DFT| Multiplicity                                                             1
 DFT| Number of spin states                                                    1
 DFT| Charge                                                                   0
 DFT| Self-interaction correction (SIC)                                       NO
 DFT| Cutoffs: density                                              1.000000E-10
 DFT|          gradient                                             1.000000E-10
 DFT|          tau                                                  1.000000E-10
 DFT|          cutoff_smoothing_range                               0.000000E+00
 DFT| XC density smoothing                                                  NONE
 DFT| XC derivatives                                                          PW

 FUNCTIONAL| PBE:
 FUNCTIONAL| J.P.Perdew, K.Burke, M.Ernzerhof, Phys. Rev. Letter, vol. 77, n 18,
 FUNCTIONAL|  pp. 3865-3868, (1996)sx=0.750sc=1.000{spin unpolarized}           


 QS| Method:                                                                GAPW
 QS| Density plane wave grid type                        NON-SPHERICAL FULLSPACE
 QS| Number of grid levels:                                                    4
 QS| Density cutoff [a.u.]:                                                250.0
 QS| Multi grid cutoff [a.u.]: 1) grid level                               250.0
 QS|                           2) grid level                                83.3
 QS|                           3) grid level                                27.8
 QS|                           4) grid level                                 9.3
 QS| Grid level progression factor:                                          3.0
 QS| Relative density cutoff [a.u.]:                                        50.0
 QS| Interaction thresholds: eps_pgf_orb:                                1.0E-12
 QS|                         eps_filter_matrix:                          0.0E+00
 QS|                         eps_core_charge:                            1.0E-14
 QS|                         eps_rho_gspace:                             1.0E-12
 QS|                         eps_rho_rspace:                             1.0E-12
 QS|                         eps_gvg_rspace:                             1.0E-06
 QS|                         eps_ppl:                                    1.0E-02
 QS|                         eps_ppnl:                                   1.0E-08
 QS| GAPW|      One center basis from orbital basis primitives
 QS| GAPW|                   eps_fit:                                    1.0E-04
 QS| GAPW|                   eps_iso:                                    1.0E-12
 QS| GAPW|                   eps_svd:                                    1.0E-08
 QS| GAPW|                   eps_cpc:                                    1.0E-12
 QS| GAPW|   atom-r-grid: quadrature:                                     GC_LOG
 QS| GAPW|      atom-s-grid:  max l :                                          8
 QS| GAPW|      max_l_rho0 :                                                   2


 ATOMIC KIND INFORMATION

  1. Atomic kind: C                                     Number of atoms:       7

     Orbital Basis Set                                               aug-cc-pVQZ

       Number of orbital shell sets:                                          10
       Number of orbital shells:                                              20
       Number of primitive Cartesian functions:                               29
       Number of Cartesian basis functions:                                  105
       Number of spherical basis functions:                                   80
       Norm type:                                                              2

       Normalised Cartesian orbitals:

                        Set   Shell   Orbital            Exponent    Coefficient

                          1       1    1px               0.032180       0.019428
                          1       1    1py               0.032180       0.019428
                          1       1    1pz               0.032180       0.019428

                          2       1    1s                0.041450       0.065472

                          3       1    1dx2              0.076600       0.018357
                          3       1    1dxy              0.076600       0.031796
                          3       1    1dxz              0.076600       0.031796
                          3       1    1dy2              0.076600       0.018357
                          3       1    1dyz              0.076600       0.031796
                          3       1    1dz2              0.076600       0.018357

                          4       1    1px              34.510000       0.000000
                                                         7.915000       0.000000
                                                         2.368000       0.000000
                                                         0.813200       1.100745
                                                         0.289000       0.000000
                                                         0.100700       0.000000
                          4       1    1py              34.510000       0.000000
                                                         7.915000       0.000000
                                                         2.368000       0.000000
                                                         0.813200       1.100745
                                                         0.289000       0.000000
                                                         0.100700       0.000000
                          4       1    1pz              34.510000       0.000000
                                                         7.915000       0.000000
                                                         2.368000       0.000000
                                                         0.813200       1.100745
                                                         0.289000       0.000000
                                                         0.100700       0.000000

                          4       2    2px              34.510000       0.641198
                                                         7.915000       0.683747
                                                         2.368000       0.596637
                                                         0.813200       0.376620
                                                         0.289000       0.140105
                                                         0.100700       0.020217
                          4       2    2py              34.510000       0.641198
                                                         7.915000       0.683747
                                                         2.368000       0.596637
                                                         0.813200       0.376620
                                                         0.289000       0.140105
                                                         0.100700       0.020217
                          4       2    2pz              34.510000       0.641198
                                                         7.915000       0.683747
                                                         2.368000       0.596637
                                                         0.813200       0.376620
                                                         0.289000       0.140105
                                                         0.100700       0.020217

                          4       3    3px              34.510000       0.000000
                                                         7.915000       0.000000
                                                         2.368000       0.000000
                                                         0.813200       0.000000
                                                         0.289000       0.302039
                                                         0.100700       0.000000
                          4       3    3py              34.510000       0.000000
                                                         7.915000       0.000000
                                                         2.368000       0.000000
                                                         0.813200       0.000000
                                                         0.289000       0.302039
                                                         0.100700       0.000000
                          4       3    3pz              34.510000       0.000000
                                                         7.915000       0.000000
                                                         2.368000       0.000000
                                                         0.813200       0.000000
                                                         0.289000       0.302039
                                                         0.100700       0.000000

                          4       4    4px              34.510000       0.000000
                                                         7.915000       0.000000
                                                         2.368000       0.000000
                                                         0.813200       0.000000
                                                         0.289000       0.000000
                                                         0.100700       0.080859
                          4       4    4py              34.510000       0.000000
                                                         7.915000       0.000000
                                                         2.368000       0.000000
                                                         0.813200       0.000000
                                                         0.289000       0.000000
                                                         0.100700       0.080859
                          4       4    4pz              34.510000       0.000000
                                                         7.915000       0.000000
                                                         2.368000       0.000000
                                                         0.813200       0.000000
                                                         0.289000       0.000000
                                                         0.100700       0.080859

                          5       1    1s            33980.000000       0.162319
                                                      5089.000000       0.302313
                                                      1157.000000       0.522143
                                                       326.600000       0.841034
                                                       106.100000       1.247069
                                                        38.110000       1.607436
                                                        14.750000       1.639463
                                                         6.035000       1.095889
                                                         2.530000       0.310322
                                                         0.735500       0.008997
                                                         0.290500      -0.000870
                                                         0.111100       0.000134

                          5       2    2s            33980.000000       0.000000
                                                      5089.000000       0.000000
                                                      1157.000000       0.000000
                                                       326.600000       0.000000
                                                       106.100000       0.000000
                                                        38.110000       0.000000
                                                        14.750000       0.000000
                                                         6.035000       0.000000
                                                         2.530000       0.000000
                                                         0.735500       0.566040
                                                         0.290500       0.000000
                                                         0.111100       0.000000

                          5       3    3s            33980.000000       0.000000
                                                      5089.000000       0.000000
                                                      1157.000000       0.000000
                                                       326.600000       0.000000
                                                       106.100000       0.000000
                                                        38.110000       0.000000
                                                        14.750000       0.000000
                                                         6.035000       0.000000
                                                         2.530000       0.000000
                                                         0.735500       0.000000
                                                         0.290500       0.282013
                                                         0.111100       0.000000

                          5       4    4s            33980.000000      -0.033891
                                                      5089.000000      -0.064843
                                                      1157.000000      -0.110989
                                                       326.600000      -0.182005
                                                       106.100000      -0.271236
                                                        38.110000      -0.373428
                                                        14.750000      -0.413970
                                                         6.035000      -0.388287
                                                         2.530000      -0.168734
                                                         0.735500       0.154985
                                                         0.290500       0.165404
                                                         0.111100       0.039147

                          5       5    5s            33980.000000       0.000000
                                                      5089.000000       0.000000
                                                      1157.000000       0.000000
                                                       326.600000       0.000000
                                                       106.100000       0.000000
                                                        38.110000       0.000000
                                                        14.750000       0.000000
                                                         6.035000       0.000000
                                                         2.530000       0.000000
                                                         0.735500       0.000000
                                                         0.290500       0.000000
                                                         0.111100       0.137150

                          6       1    1fx3              0.187000       0.033853
                          6       1    1fx2y             0.187000       0.075698
                          6       1    1fx2z             0.187000       0.075698
                          6       1    1fxy2             0.187000       0.075698
                          6       1    1fxyz             0.187000       0.131112
                          6       1    1fxz2             0.187000       0.075698
                          6       1    1fy3              0.187000       0.033853
                          6       1    1fy2z             0.187000       0.075698
                          6       1    1fyz2             0.187000       0.075698
                          6       1    1fz3              0.187000       0.033853

                          7       1    1dx2              1.848000       4.821009
                                                         0.649000       0.000000
                                                         0.228000       0.000000
                          7       1    1dxy              1.848000       8.350232
                                                         0.649000       0.000000
                                                         0.228000       0.000000
                          7       1    1dxz              1.848000       8.350232
                                                         0.649000       0.000000
                                                         0.228000       0.000000
                          7       1    1dy2              1.848000       4.821009
                                                         0.649000       0.000000
                                                         0.228000       0.000000
                          7       1    1dyz              1.848000       8.350232
                                                         0.649000       0.000000
                                                         0.228000       0.000000
                          7       1    1dz2              1.848000       4.821009
                                                         0.649000       0.000000
                                                         0.228000       0.000000

                          7       2    2dx2              1.848000       0.000000
                                                         0.649000       0.772392
                                                         0.228000       0.000000
                          7       2    2dxy              1.848000       0.000000
                                                         0.649000       1.337822
                                                         0.228000       0.000000
                          7       2    2dxz              1.848000       0.000000
                                                         0.649000       1.337822
                                                         0.228000       0.000000
                          7       2    2dy2              1.848000       0.000000
                                                         0.649000       0.772392
                                                         0.228000       0.000000
                          7       2    2dyz              1.848000       0.000000
                                                         0.649000       1.337822
                                                         0.228000       0.000000
                          7       2    2dz2              1.848000       0.000000
                                                         0.649000       0.772392
                                                         0.228000       0.000000

                          7       3    3dx2              1.848000       0.000000
                                                         0.649000       0.000000
                                                         0.228000       0.123821
                          7       3    3dxy              1.848000       0.000000
                                                         0.649000       0.000000
                                                         0.228000       0.214465
                          7       3    3dxz              1.848000       0.000000
                                                         0.649000       0.000000
                                                         0.228000       0.214465
                          7       3    3dy2              1.848000       0.000000
                                                         0.649000       0.000000
                                                         0.228000       0.123821
                          7       3    3dyz              1.848000       0.000000
                                                         0.649000       0.000000
                                                         0.228000       0.214465
                          7       3    3dz2              1.848000       0.000000
                                                         0.649000       0.000000
                                                         0.228000       0.123821

                          8       1    1gx4              0.424000       0.105121
                          8       1    1gx3y             0.424000       0.278125
                          8       1    1gx3z             0.424000       0.278125
                          8       1    1gx2y2            0.424000       0.359058
                          8       1    1gx2yz            0.424000       0.621907
                          8       1    1gx2z2            0.424000       0.359058
                          8       1    1gxy3             0.424000       0.278125
                          8       1    1gxy2z            0.424000       0.621907
                          8       1    1gxyz2            0.424000       0.621907
                          8       1    1gxz3             0.424000       0.278125
                          8       1    1gy4              0.424000       0.105121
                          8       1    1gy3z             0.424000       0.278125
                          8       1    1gy2z2            0.424000       0.359058
                          8       1    1gyz3             0.424000       0.278125
                          8       1    1gz4              0.424000       0.105121

                          9       1    1fx3              1.419000       3.235302
                                                         0.485000       0.000000
                          9       1    1fx2y             1.419000       7.234355
                                                         0.485000       0.000000
                          9       1    1fx2z             1.419000       7.234355
                                                         0.485000       0.000000
                          9       1    1fxy2             1.419000       7.234355
                                                         0.485000       0.000000
                          9       1    1fxyz             1.419000      12.530271
                                                         0.485000       0.000000
                          9       1    1fxz2             1.419000       7.234355
                                                         0.485000       0.000000
                          9       1    1fy3              1.419000       3.235302
                                                         0.485000       0.000000
                          9       1    1fy2z             1.419000       7.234355
                                                         0.485000       0.000000
                          9       1    1fyz2             1.419000       7.234355
                                                         0.485000       0.000000
                          9       1    1fz3              1.419000       3.235302
                                                         0.485000       0.000000

                          9       2    2fx3              1.419000       0.000000
                                                         0.485000       0.288984
                          9       2    2fx2y             1.419000       0.000000
                                                         0.485000       0.646187
                          9       2    2fx2z             1.419000       0.000000
                                                         0.485000       0.646187
                          9       2    2fxy2             1.419000       0.000000
                                                         0.485000       0.646187
                          9       2    2fxyz             1.419000       0.000000
                                                         0.485000       1.119229
                          9       2    2fxz2             1.419000       0.000000
                                                         0.485000       0.646187
                          9       2    2fy3              1.419000       0.000000
                                                         0.485000       0.288984
                          9       2    2fy2z             1.419000       0.000000
                                                         0.485000       0.646187
                          9       2    2fyz2             1.419000       0.000000
                                                         0.485000       0.646187
                          9       2    2fz3              1.419000       0.000000
                                                         0.485000       0.288984

                         10       1    1gx4              1.011000       1.146835
                         10       1    1gx3y             1.011000       3.034241
                         10       1    1gx3z             1.011000       3.034241
                         10       1    1gx2y2            1.011000       3.917189
                         10       1    1gx2yz            1.011000       6.784770
                         10       1    1gx2z2            1.011000       3.917189
                         10       1    1gxy3             1.011000       3.034241
                         10       1    1gxy2z            1.011000       6.784770
                         10       1    1gxyz2            1.011000       6.784770
                         10       1    1gxz3             1.011000       3.034241
                         10       1    1gy4              1.011000       1.146835
                         10       1    1gy3z             1.011000       3.034241
                         10       1    1gy2z2            1.011000       3.917189
                         10       1    1gyz3             1.011000       3.034241
                         10       1    1gz4              1.011000       1.146835

     RI Auxiliary Basis Set                                    aug-cc-pVQZ-OPTRI

       Number of orbital shell sets:                                          19
       Number of orbital shells:                                              19
       Number of primitive Cartesian functions:                               19
       Number of Cartesian basis functions:                                  124
       Number of spherical basis functions:                                   89
       Norm type:                                                              2

       Normalised Cartesian orbitals:

                        Set   Shell   Orbital            Exponent    Coefficient

                          1       1    1px               0.047059       0.031242
                          1       1    1py               0.047059       0.031242
                          1       1    1pz               0.047059       0.031242

                          2       1    1s                0.062311       0.088886

                          3       1    1px               0.069085       0.050486
                          3       1    1py               0.069085       0.050486
                          3       1    1pz               0.069085       0.050486

                          4       1    1dx2              0.114693       0.037205
                          4       1    1dxy              0.114693       0.064441
                          4       1    1dxz              0.114693       0.064441
                          4       1    1dy2              0.114693       0.037205
                          4       1    1dyz              0.114693       0.064441
                          4       1    1dz2              0.114693       0.037205

                          5       1    1px               0.151311       0.134517
                          5       1    1py               0.151311       0.134517
                          5       1    1pz               0.151311       0.134517

                          6       1    1s                0.165868       0.185239

                          7       1    1fx3              0.314425       0.108985
                          7       1    1fx2y             0.314425       0.243699
                          7       1    1fx2z             0.314425       0.243699
                          7       1    1fxy2             0.314425       0.243699
                          7       1    1fxyz             0.314425       0.422098
                          7       1    1fxz2             0.314425       0.243699
                          7       1    1fy3              0.314425       0.108985
                          7       1    1fy2z             0.314425       0.243699
                          7       1    1fyz2             0.314425       0.243699
                          7       1    1fz3              0.314425       0.108985

                          8       1    1dx2              0.339088       0.248003
                          8       1    1dxy              0.339088       0.429553
                          8       1    1dxz              0.339088       0.429553
                          8       1    1dy2              0.339088       0.248003
                          8       1    1dyz              0.339088       0.429553
                          8       1    1dz2              0.339088       0.248003

                          9       1    1s                0.432835       0.380322

                         10       1    1gx4              0.675927       0.379018
                         10       1    1gx3y             0.675927       1.002787
                         10       1    1gx3z             0.675927       1.002787
                         10       1    1gx2y2            0.675927       1.294593
                         10       1    1gx2yz            0.675927       2.242301
                         10       1    1gx2z2            0.675927       1.294593
                         10       1    1gxy3             0.675927       1.002787
                         10       1    1gxy2z            0.675927       2.242301
                         10       1    1gxyz2            0.675927       2.242301
                         10       1    1gxz3             0.675927       1.002787
                         10       1    1gy4              0.675927       0.379018
                         10       1    1gy3z             0.675927       1.002787
                         10       1    1gy2z2            0.675927       1.294593
                         10       1    1gyz3             0.675927       1.002787
                         10       1    1gz4              0.675927       0.379018

                         11       1    1fx3              0.726248       0.716796
                         11       1    1fx2y             0.726248       1.602805
                         11       1    1fx2z             0.726248       1.602805
                         11       1    1fxy2             0.726248       1.602805
                         11       1    1fxyz             0.726248       2.776139
                         11       1    1fxz2             0.726248       1.602805
                         11       1    1fy3              0.726248       0.716796
                         11       1    1fy2z             0.726248       1.602805
                         11       1    1fyz2             0.726248       1.602805
                         11       1    1fz3              0.726248       0.716796

                         12       1    1hx5              1.155657       1.187239
                         12       1    1hx4y             1.155657       3.561718
                         12       1    1hx4z             1.155657       3.561718
                         12       1    1hx3y2            1.155657       5.440614
                         12       1    1hx3yz            1.155657       9.423420
                         12       1    1hx3z2            1.155657       5.440614
                         12       1    1hx2y3            1.155657       5.440614
                         12       1    1hx2y2z           1.155657      12.165583
                         12       1    1hx2yz2           1.155657      12.165583
                         12       1    1hx2z3            1.155657       5.440614
                         12       1    1hxy4             1.155657       3.561718
                         12       1    1hxy3z            1.155657       9.423420
                         12       1    1hxy2z2           1.155657      12.165583
                         12       1    1hxyz3            1.155657       9.423420
                         12       1    1hxz4             1.155657       3.561718
                         12       1    1hy5              1.155657       1.187239
                         12       1    1hy4z             1.155657       3.561718
                         12       1    1hy3z2            1.155657       5.440614
                         12       1    1hy2z3            1.155657       5.440614
                         12       1    1hyz4             1.155657       3.561718
                         12       1    1hz5              1.155657       1.187239

                         13       1    1px               1.221757       1.830927
                         13       1    1py               1.221757       1.830927
                         13       1    1pz               1.221757       1.830927

                         14       1    1dx2              1.234971       2.381271
                         14       1    1dxy              1.234971       4.124482
                         14       1    1dxz              1.234971       4.124482
                         14       1    1dy2              1.234971       2.381271
                         14       1    1dyz              1.234971       4.124482
                         14       1    1dz2              1.234971       2.381271

                         15       1    1s                1.924328       1.164446

                         16       1    1gx4              2.190809       9.618290
                         16       1    1gx3y             2.190809      25.447602
                         16       1    1gx3z             2.190809      25.447602
                         16       1    1gx2y2            2.190809      32.852713
                         16       1    1gx2yz            2.190809      56.902568
                         16       1    1gx2z2            2.190809      32.852713
                         16       1    1gxy3             2.190809      25.447602
                         16       1    1gxy2z            2.190809      56.902568
                         16       1    1gxyz2            2.190809      56.902568
                         16       1    1gxz3             2.190809      25.447602
                         16       1    1gy4              2.190809       9.618290
                         16       1    1gy3z             2.190809      25.447602
                         16       1    1gy2z2            2.190809      32.852713
                         16       1    1gyz3             2.190809      25.447602
                         16       1    1gz4              2.190809       9.618290

                         17       1    1dx2              3.110401      11.990523
                         17       1    1dxy              3.110401      20.768195
                         17       1    1dxz              3.110401      20.768195
                         17       1    1dy2              3.110401      11.990523
                         17       1    1dyz              3.110401      20.768195
                         17       1    1dz2              3.110401      11.990523

                         18       1    1px               3.134944       5.946033
                         18       1    1py               3.134944       5.946033
                         18       1    1pz               3.134944       5.946033

                         19       1    1fx3              3.452225      23.915387
                         19       1    1fx2y             3.452225      53.476431
                         19       1    1fx2z             3.452225      53.476431
                         19       1    1fxy2             3.452225      53.476431
                         19       1    1fxyz             3.452225      92.623895
                         19       1    1fxz2             3.452225      53.476431
                         19       1    1fy3              3.452225      23.915387
                         19       1    1fy2z             3.452225      53.476431
                         19       1    1fyz2             3.452225      53.476431
                         19       1    1fz3              3.452225      23.915387

       Atomic covalent radius [Angstrom]:                                  0.770

       Atomic van der Waals radius [Angstrom]:                             1.700

     The atoms of this atomic kind are PAW atoms (GAPW):
       Hard Gaussian function radius:                                      1.512
       Rho0 radius:                                                        1.512
       Maximum GTO radius used for PAW projector construction:            24.566

     GAPW Soft Basis Set                                        aug-cc-pVQZ_soft

       Number of orbital shell sets:                                          10
       Number of orbital shells:                                              20
       Number of primitive Cartesian functions:                               19
       Number of Cartesian basis functions:                                  105
       Number of spherical basis functions:                                   80
       Norm type:                                                              2

       Normalised Cartesian orbitals:

                        Set   Shell   Orbital            Exponent    Coefficient

                          1       1    1px               0.032180       0.019428
                          1       1    1py               0.032180       0.019428
                          1       1    1pz               0.032180       0.019428

                          2       1    1s                0.041450       0.065472

                          3       1    1dx2              0.076600       0.018357
                          3       1    1dxy              0.076600       0.031796
                          3       1    1dxz              0.076600       0.031796
                          3       1    1dy2              0.076600       0.018357
                          3       1    1dyz              0.076600       0.031796
                          3       1    1dz2              0.076600       0.018357

                          4       1    1px               2.368000       0.000000
                                                         0.813200       1.100745
                                                         0.289000       0.000000
                                                         0.100700       0.000000
                          4       1    1py               2.368000       0.000000
                                                         0.813200       1.100745
                                                         0.289000       0.000000
                                                         0.100700       0.000000
                          4       1    1pz               2.368000       0.000000
                                                         0.813200       1.100745
                                                         0.289000       0.000000
                                                         0.100700       0.000000

                          4       2    2px               2.368000       0.596637
                                                         0.813200       0.376620
                                                         0.289000       0.140105
                                                         0.100700       0.020217
                          4       2    2py               2.368000       0.596637
                                                         0.813200       0.376620
                                                         0.289000       0.140105
                                                         0.100700       0.020217
                          4       2    2pz               2.368000       0.596637
                                                         0.813200       0.376620
                                                         0.289000       0.140105
                                                         0.100700       0.020217

                          4       3    3px               2.368000       0.000000
                                                         0.813200       0.000000
                                                         0.289000       0.302039
                                                         0.100700       0.000000
                          4       3    3py               2.368000       0.000000
                                                         0.813200       0.000000
                                                         0.289000       0.302039
                                                         0.100700       0.000000
                          4       3    3pz               2.368000       0.000000
                                                         0.813200       0.000000
                                                         0.289000       0.302039
                                                         0.100700       0.000000

                          4       4    4px               2.368000       0.000000
                                                         0.813200       0.000000
                                                         0.289000       0.000000
                                                         0.100700       0.080859
                          4       4    4py               2.368000       0.000000
                                                         0.813200       0.000000
                                                         0.289000       0.000000
                                                         0.100700       0.080859
                          4       4    4pz               2.368000       0.000000
                                                         0.813200       0.000000
                                                         0.289000       0.000000
                                                         0.100700       0.080859

                          5       1    1s                2.530000       0.310322
                                                         0.735500       0.008997
                                                         0.290500      -0.000870
                                                         0.111100       0.000134

                          5       2    2s                2.530000       0.000000
                                                         0.735500       0.566040
                                                         0.290500       0.000000
                                                         0.111100       0.000000

                          5       3    3s                2.530000       0.000000
                                                         0.735500       0.000000
                                                         0.290500       0.282013
                                                         0.111100       0.000000

                          5       4    4s                2.530000      -0.168734
                                                         0.735500       0.154985
                                                         0.290500       0.165404
                                                         0.111100       0.039147

                          5       5    5s                2.530000       0.000000
                                                         0.735500       0.000000
                                                         0.290500       0.000000
                                                         0.111100       0.137150

                          6       1    1fx3              0.187000       0.033853
                          6       1    1fx2y             0.187000       0.075698
                          6       1    1fx2z             0.187000       0.075698
                          6       1    1fxy2             0.187000       0.075698
                          6       1    1fxyz             0.187000       0.131112
                          6       1    1fxz2             0.187000       0.075698
                          6       1    1fy3              0.187000       0.033853
                          6       1    1fy2z             0.187000       0.075698
                          6       1    1fyz2             0.187000       0.075698
                          6       1    1fz3              0.187000       0.033853

                          7       1    1dx2              1.848000       4.821009
                                                         0.649000       0.000000
                                                         0.228000       0.000000
                          7       1    1dxy              1.848000       8.350232
                                                         0.649000       0.000000
                                                         0.228000       0.000000
                          7       1    1dxz              1.848000       8.350232
                                                         0.649000       0.000000
                                                         0.228000       0.000000
                          7       1    1dy2              1.848000       4.821009
                                                         0.649000       0.000000
                                                         0.228000       0.000000
                          7       1    1dyz              1.848000       8.350232
                                                         0.649000       0.000000
                                                         0.228000       0.000000
                          7       1    1dz2              1.848000       4.821009
                                                         0.649000       0.000000
                                                         0.228000       0.000000

                          7       2    2dx2              1.848000       0.000000
                                                         0.649000       0.772392
                                                         0.228000       0.000000
                          7       2    2dxy              1.848000       0.000000
                                                         0.649000       1.337822
                                                         0.228000       0.000000
                          7       2    2dxz              1.848000       0.000000
                                                         0.649000       1.337822
                                                         0.228000       0.000000
                          7       2    2dy2              1.848000       0.000000
                                                         0.649000       0.772392
                                                         0.228000       0.000000
                          7       2    2dyz              1.848000       0.000000
                                                         0.649000       1.337822
                                                         0.228000       0.000000
                          7       2    2dz2              1.848000       0.000000
                                                         0.649000       0.772392
                                                         0.228000       0.000000

                          7       3    3dx2              1.848000       0.000000
                                                         0.649000       0.000000
                                                         0.228000       0.123821
                          7       3    3dxy              1.848000       0.000000
                                                         0.649000       0.000000
                                                         0.228000       0.214465
                          7       3    3dxz              1.848000       0.000000
                                                         0.649000       0.000000
                                                         0.228000       0.214465
                          7       3    3dy2              1.848000       0.000000
                                                         0.649000       0.000000
                                                         0.228000       0.123821
                          7       3    3dyz              1.848000       0.000000
                                                         0.649000       0.000000
                                                         0.228000       0.214465
                          7       3    3dz2              1.848000       0.000000
                                                         0.649000       0.000000
                                                         0.228000       0.123821

                          8       1    1gx4              0.424000       0.105121
                          8       1    1gx3y             0.424000       0.278125
                          8       1    1gx3z             0.424000       0.278125
                          8       1    1gx2y2            0.424000       0.359058
                          8       1    1gx2yz            0.424000       0.621907
                          8       1    1gx2z2            0.424000       0.359058
                          8       1    1gxy3             0.424000       0.278125
                          8       1    1gxy2z            0.424000       0.621907
                          8       1    1gxyz2            0.424000       0.621907
                          8       1    1gxz3             0.424000       0.278125
                          8       1    1gy4              0.424000       0.105121
                          8       1    1gy3z             0.424000       0.278125
                          8       1    1gy2z2            0.424000       0.359058
                          8       1    1gyz3             0.424000       0.278125
                          8       1    1gz4              0.424000       0.105121

                          9       1    1fx3              1.419000       3.235302
                                                         0.485000       0.000000
                          9       1    1fx2y             1.419000       7.234355
                                                         0.485000       0.000000
                          9       1    1fx2z             1.419000       7.234355
                                                         0.485000       0.000000
                          9       1    1fxy2             1.419000       7.234355
                                                         0.485000       0.000000
                          9       1    1fxyz             1.419000      12.530271
                                                         0.485000       0.000000
                          9       1    1fxz2             1.419000       7.234355
                                                         0.485000       0.000000
                          9       1    1fy3              1.419000       3.235302
                                                         0.485000       0.000000
                          9       1    1fy2z             1.419000       7.234355
                                                         0.485000       0.000000
                          9       1    1fyz2             1.419000       7.234355
                                                         0.485000       0.000000
                          9       1    1fz3              1.419000       3.235302
                                                         0.485000       0.000000

                          9       2    2fx3              1.419000       0.000000
                                                         0.485000       0.288984
                          9       2    2fx2y             1.419000       0.000000
                                                         0.485000       0.646187
                          9       2    2fx2z             1.419000       0.000000
                                                         0.485000       0.646187
                          9       2    2fxy2             1.419000       0.000000
                                                         0.485000       0.646187
                          9       2    2fxyz             1.419000       0.000000
                                                         0.485000       1.119229
                          9       2    2fxz2             1.419000       0.000000
                                                         0.485000       0.646187
                          9       2    2fy3              1.419000       0.000000
                                                         0.485000       0.288984
                          9       2    2fy2z             1.419000       0.000000
                                                         0.485000       0.646187
                          9       2    2fyz2             1.419000       0.000000
                                                         0.485000       0.646187
                          9       2    2fz3              1.419000       0.000000
                                                         0.485000       0.288984

                         10       1    1gx4              1.011000       1.146835
                         10       1    1gx3y             1.011000       3.034241
                         10       1    1gx3z             1.011000       3.034241
                         10       1    1gx2y2            1.011000       3.917189
                         10       1    1gx2yz            1.011000       6.784770
                         10       1    1gx2z2            1.011000       3.917189
                         10       1    1gxy3             1.011000       3.034241
                         10       1    1gxy2z            1.011000       6.784770
                         10       1    1gxyz2            1.011000       6.784770
                         10       1    1gxz3             1.011000       3.034241
                         10       1    1gy4              1.011000       1.146835
                         10       1    1gy3z             1.011000       3.034241
                         10       1    1gy2z2            1.011000       3.917189
                         10       1    1gyz3             1.011000       3.034241
                         10       1    1gz4              1.011000       1.146835

     AE Potential information for                                            ALL

       Description:                                       All-electron potential
                                          Krack, Parrinello, PCCP 2, 2105 (2000)

       Gaussian exponent of the core charge distribution:               4.109048
       Electronic configuration (s p d ...):                           4   2   0

  2. Atomic kind: H                                     Number of atoms:       5

     Orbital Basis Set                                               aug-cc-pVQZ

       Number of orbital shell sets:                                           8
       Number of orbital shells:                                              14
       Number of primitive Cartesian functions:                               16
       Number of Cartesian basis functions:                                   55
       Number of spherical basis functions:                                   46
       Norm type:                                                              2

       Normalised Cartesian orbitals:

                        Set   Shell   Orbital            Exponent    Coefficient

                          1       1    1s                0.023630       0.042954

                          2       1    1px               0.084800       0.065228
                          2       1    1py               0.084800       0.065228
                          2       1    1pz               0.084800       0.065228

                          3       1    1s               82.640000       0.000000
                                                        12.410000       0.000000
                                                         2.824000       0.000000
                                                         0.797700       0.601575
                                                         0.258100       0.000000
                                                         0.089890       0.000000

                          3       2    2s               82.640000       0.000000
                                                        12.410000       0.000000
                                                         2.824000       0.000000
                                                         0.797700       0.000000
                                                         0.258100       0.258078
                                                         0.089890       0.000000

                          3       3    3s               82.640000       0.039186
                                                        12.410000       0.072302
                                                         2.824000       0.117344
                                                         0.797700       0.154530
                                                         0.258100       0.128360
                                                         0.089890       0.034648

                          3       4    4s               82.640000       0.000000
                                                        12.410000       0.000000
                                                         2.824000       0.000000
                                                         0.797700       0.000000
                                                         0.258100       0.000000
                                                         0.089890       0.117002

                          4       1    1dx2              0.190000       0.089997
                          4       1    1dxy              0.190000       0.155879
                          4       1    1dxz              0.190000       0.155879
                          4       1    1dy2              0.190000       0.089997
                          4       1    1dyz              0.190000       0.155879
                          4       1    1dz2              0.190000       0.089997

                          5       1    1px               2.292000       4.019836
                                                         0.838000       0.000000
                                                         0.292000       0.000000
                          5       1    1py               2.292000       4.019836
                                                         0.838000       0.000000
                                                         0.292000       0.000000
                          5       1    1pz               2.292000       4.019836
                                                         0.838000       0.000000
                                                         0.292000       0.000000

                          5       2    2px               2.292000       0.000000
                                                         0.838000       1.142865
                                                         0.292000       0.000000
                          5       2    2py               2.292000       0.000000
                                                         0.838000       1.142865
                                                         0.292000       0.000000
                          5       2    2pz               2.292000       0.000000
                                                         0.838000       1.142865
                                                         0.292000       0.000000

                          5       3    3px               2.292000       0.000000
                                                         0.838000       0.000000
                                                         0.292000       0.305963
                          5       3    3py               2.292000       0.000000
                                                         0.838000       0.000000
                                                         0.292000       0.305963
                          5       3    3pz               2.292000       0.000000
                                                         0.838000       0.000000
                                                         0.292000       0.305963

                          6       1    1fx3              0.360000       0.147787
                          6       1    1fx2y             0.360000       0.330461
                          6       1    1fx2z             0.360000       0.330461
                          6       1    1fxy2             0.360000       0.330461
                          6       1    1fxyz             0.360000       0.572375
                          6       1    1fxz2             0.360000       0.330461
                          6       1    1fy3              0.360000       0.147787
                          6       1    1fy2z             0.360000       0.330461
                          6       1    1fyz2             0.360000       0.330461
                          6       1    1fz3              0.360000       0.147787

                          7       1    1dx2              2.062000       5.840024
                                                         0.662000       0.000000
                          7       1    1dxy              2.062000      10.115218
                                                         0.662000       0.000000
                          7       1    1dxz              2.062000      10.115218
                                                         0.662000       0.000000
                          7       1    1dy2              2.062000       5.840024
                                                         0.662000       0.000000
                          7       1    1dyz              2.062000      10.115218
                                                         0.662000       0.000000
                          7       1    1dz2              2.062000       5.840024
                                                         0.662000       0.000000

                          7       2    2dx2              2.062000       0.000000
                                                         0.662000       0.799670
                          7       2    2dxy              2.062000       0.000000
                                                         0.662000       1.385069
                          7       2    2dxz              2.062000       0.000000
                                                         0.662000       1.385069
                          7       2    2dy2              2.062000       0.000000
                                                         0.662000       0.799670
                          7       2    2dyz              2.062000       0.000000
                                                         0.662000       1.385069
                          7       2    2dz2              2.062000       0.000000
                                                         0.662000       0.799670

                          8       1    1fx3              1.397000       3.123535
                          8       1    1fx2y             1.397000       6.984436
                          8       1    1fx2z             1.397000       6.984436
                          8       1    1fxy2             1.397000       6.984436
                          8       1    1fxyz             1.397000      12.097399
                          8       1    1fxz2             1.397000       6.984436
                          8       1    1fy3              1.397000       3.123535
                          8       1    1fy2z             1.397000       6.984436
                          8       1    1fyz2             1.397000       6.984436
                          8       1    1fz3              1.397000       3.123535

     RI Auxiliary Basis Set                                    aug-cc-pVQZ-OPTRI

       Number of orbital shell sets:                                          15
       Number of orbital shells:                                              15
       Number of primitive Cartesian functions:                               15
       Number of Cartesian basis functions:                                   84
       Number of spherical basis functions:                                   63
       Norm type:                                                              2

       Normalised Cartesian orbitals:

                        Set   Shell   Orbital            Exponent    Coefficient

                          1       1    1s                0.172202       0.190519

                          2       1    1dx2              0.411937       0.348629
                          2       1    1dxy              0.411937       0.603843
                          2       1    1dxz              0.411937       0.603843
                          2       1    1dy2              0.411937       0.348629
                          2       1    1dyz              0.411937       0.603843
                          2       1    1dz2              0.411937       0.348629

                          3       1    1s                0.462666       0.399817

                          4       1    1px               0.544212       0.666270
                          4       1    1py               0.544212       0.666270
                          4       1    1pz               0.544212       0.666270

                          5       1    1fx3              0.798039       0.886153
                          5       1    1fx2y             0.798039       1.981498
                          5       1    1fx2z             0.798039       1.981498
                          5       1    1fxy2             0.798039       1.981498
                          5       1    1fxyz             0.798039       3.432056
                          5       1    1fxz2             0.798039       1.981498
                          5       1    1fy3              0.798039       0.886153
                          5       1    1fy2z             0.798039       1.981498
                          5       1    1fyz2             0.798039       1.981498
                          5       1    1fz3              0.798039       0.886153

                          6       1    1gx4              1.030651       1.209184
                          6       1    1gx3y             1.030651       3.199200
                          6       1    1gx3z             1.030651       3.199200
                          6       1    1gx2y2            1.030651       4.130150
[...]
 Generalized gradient approximation made simple.
 https://doi.org/10.1103/PhysRevLett.77.3865


 -------------------------------------------------------------------------------
 -                                                                             -
 -                                T I M I N G                                  -
 -                                                                             -
 -------------------------------------------------------------------------------
 SUBROUTINE                       CALLS  ASD         SELF TIME        TOTAL TIME
                                MAXIMUM       AVERAGE  MAXIMUM  AVERAGE  MAXIMUM
 CP2K                                 1  1.0    0.108    0.153  734.804  734.804
 qs_energies                          1  2.0    0.000    0.001  732.725  732.725
 qs_energies_properties               1  3.0    0.000    0.000  445.457  445.457
 tddfpt                               1  4.0    0.000    0.000  445.457  445.457
 tddfpt_energies                      1  5.0    0.000    0.001  445.247  445.247
 tddfpt_davidson_solver               1  6.0    0.003    0.005  440.262  440.262
 tddfpt_compute_Aop_evects            9  7.0    0.000    0.000  437.317  437.319
 integrate_four_center              458  9.8   11.214   22.946  294.977  295.207
 scf_env_do_scf                       1  3.0    0.000    0.000  281.729  281.738
 scf_env_do_scf_inner_loop           98  4.0    0.003    0.007  281.729  281.738
 fhxc_kernel                          9  8.0    0.008    0.009  256.812  256.814
 integrate_four_center_main         458 10.8    4.205   14.468  207.658  233.582
 qs_ks_update_qs_env                 98  5.0    0.001    0.001  231.818  231.928
 rebuild_ks_matrix                   98  6.0    0.000    0.000  231.805  231.914
 qs_ks_build_kohn_sham_matrix        98  7.0    0.015    0.017  231.804  231.914
 integrate_four_center_bin        99606 11.8  203.453  228.162  203.453  228.162
 tddfpt_apply_hfx                     9  8.0    0.005    0.006  179.244  179.244
 tddft_hfx_matrix                   360  9.0    0.012    0.013  175.265  175.444
 pw_poisson_solve                   278  9.3    2.277    3.257  125.576  126.537
 hfx_ks_matrix                       98  8.0    0.004    0.005  119.739  119.799
 tddfpt_apply_coulomb               180  9.0    0.003    0.004  111.413  112.535
 fft_wrap_pw1pw2                   5672 11.0    0.094    0.150  104.692  106.143
 fft_wrap_pw1pw2_250               3998 12.0    3.566    3.989  101.252  102.701
 fft3d_ps                          5672 13.0   19.650   22.932   94.490   95.980
 mp_alltoall_z22v                  5672 15.0   71.765   74.124   71.765   74.124
 qs_rho_update_rho_low              280  7.6    0.004    0.004   69.241   69.256
 ps_wavelet_solve                   278 10.3   44.795   54.847   67.581   68.866
 calculate_rho_elec                 280  8.6    1.024    1.294   63.629   63.644
 prepare_gapw_den                   279  8.6    0.007    0.010   57.822   57.856
 integrate_v_rspace                 278  9.0    0.007    0.009   57.087   57.229
 x_to_yz                           2604 13.7    1.451    1.975   54.252   55.843
 mp_alltoall_d54                    278 11.3   13.365   50.150   13.365   50.150
 mp_sync                           2447 11.4   30.310   49.335   30.310   49.335
 density_rs2pw                      280  9.6    0.014    0.017   40.889   48.506
 gaVxcgb_GC                        1112  9.6    1.107   45.198    1.107   45.198
 mp_alltoall_d11v                 16360 11.6   35.649   44.616   35.649   44.616
 transfer_rs2pw                    1400 10.6    0.029    0.051   34.396   42.004
 calculate_rho_atom                1116  9.6    9.024   41.619    9.024   41.619
 calculate_xc_2nd_deriv_atom        180  9.0    0.179    5.866    0.931   35.705
 mp_waitany                       64766 12.7   26.109   35.214   26.109   35.214
 mp_sum_dv                        45709  8.8   33.972   35.160   33.972   35.160
 grid_collocate_task_list           280  9.6   20.459   35.139   20.459   35.139
 rs_gather_matrices                 278 10.0    0.043    0.099   27.273   31.426
 grid_integrate_task_list           278 10.0    4.072   30.619    4.072   30.619
 transfer_rs2pw_250                 560 11.6    2.593    2.977   20.716   30.003
 xc_pw_derive                      1671 11.0    0.011    0.013   28.675   29.000
 calc_screening_functions             1 10.0   21.016   22.003   26.947   28.010
 mp_sum_d                         17189  7.2   25.393   26.470   25.393   26.470
 potential_pw2rs                    278 10.0    0.087    0.097   25.735   25.893
 transfer_pw2rs                    1391 10.9    0.019    0.024   23.719   24.092
 tddfpt_apply_xc_analytic           180  9.0    0.068    0.079   22.059   22.226
 yz_to_x                           2510 14.3    1.106    1.250   20.022   20.826
 sum_up_and_integrate                98  8.0    0.001    0.002   19.835   19.897
 mp_waitall_1                    371864 13.3   15.185   19.391   15.185   19.391
 xc_pw_divergence                   278 10.6    0.006    0.006   18.918   19.252
 calculate_vxc_atom                  98  8.0    0.098    1.644   17.691   17.691
 integrate_vhg0_rspace              278  9.3    2.893    3.231   15.707   15.932
 cp_fm_syevd                        150  7.2    0.001    0.002   15.196   15.212
 cp_fm_redistribute_end             150  8.2    7.576   15.009    7.593   15.017
 cp_fm_syevd_base                   150  8.2    7.405   14.836    7.405   14.836
 qs_scf_new_mos                      98  5.0    0.001    0.002   14.298   14.363
 qs_vxc_create                       98  8.0    0.001    0.002   14.043   14.044
 xc_vxc_pw_create                    98  9.0    0.387    0.493   14.041   14.043
 eigensolver_symm                    98  6.0    0.004    0.005   13.182   13.194
 mp_sum_dm                        11863  9.8   12.717   13.114   12.717   13.114
 mp_alltoall_d45                    279 11.3    8.976   13.005    8.976   13.005
 xc_calc_2nd_deriv_analytical      1620 10.2    0.526    0.695   12.674   12.831
 gspace_mixing                       97  5.0    0.354    0.448   11.256   11.257
 put_rho0_on_grid                   279  9.6    1.065    1.441   10.605   10.640
 transfer_pw2rs_250                 557 11.6    2.786    3.177    9.835   10.193
 powell_optimize                3931688 11.0    9.768   10.177    9.768   10.177
 transfer_pw2rs_30                  278 12.0    5.453    6.470    9.616    9.852
 broyden_mixing                      97  6.0    8.651    9.099    8.975    9.267
 transfer_rs2pw_30                  280 11.6    3.036    3.284    8.509    8.627
 cp_dbcsr_sm_fm_multiply           1126  8.6    0.027    0.030    7.817    8.069
 transfer_rs2pw_90                  280 11.6    0.482    0.570    3.665    7.799
 mp_isendrecv_dv                 186944 12.2    2.599    7.533    2.599    7.533
 integrate_four_center_getP         458 10.8    0.603    0.684    6.844    7.113
 xc_rho_set_and_dset_create          99 10.0    0.259    0.307    6.507    7.101
 mp_sendrecv_dv                   71120 12.6    6.431    6.830    6.431    6.830
 integrate_four_center_dist_KS      458 10.8    0.386    0.424    6.324    6.337
 calc_pair_dist_radii                 1 10.0    1.624    1.673    5.461    5.615
 calculate_rho_atom_coeff           280  8.6    0.379    0.587    5.609    5.610
 calculate_rho0_atom               1116  9.6    5.365    5.573    5.365    5.573
 dbcsr_complete_redistribute       3833 10.4    0.221    0.327    5.079    5.336
 qs_energies_init_hamiltonians        1  3.0    0.000    0.000    4.991    4.991
 build_core_hamiltonian_matrix        1  4.0    0.000    0.000    4.982    4.982
 overlap_condnum                      1  5.0    0.000    0.000    4.965    4.975
 Vh_1c_gg_integrals                 278  9.3    0.161    4.709    4.870    4.953
 arnoldi_conjugate_gradient           5  6.0    0.066    0.083    4.751    4.751
 tddfpt_print_nto_analysis            1  6.0    0.003    0.003    4.251    4.251
 mp_isend_dm3                     11166 12.7    1.505    4.195    1.505    4.195
 dbcsr_multiply_generic            1584 10.3    0.079    0.084    3.773    4.055
 cp2k_distribution_to_z_slices      278 10.3    2.007    2.241    3.557    3.779
 copy_fm_to_dbcsr                  2583  9.5    0.013    0.014    3.479    3.739
 cp_fm_geeig                         20  7.0    0.001    0.001    3.726    3.728
 pw_scatter_p                      2882 12.7    3.379    3.708    3.379    3.708
 copy_dbcsr_to_fm                  1248  9.2    0.018    0.020    3.358    3.694
 transfer_pw2rs_90                  278 12.0    0.459    0.507    2.772    3.058
 cp_dbcsr_sm_fm_multiply_core      1126  9.6    0.004    0.004    2.658    2.923
 dbcsr_sym_matrix_vector_mult      9515  7.0    0.155    0.164    2.607    2.686
 multiply_cannon                   1584 11.3    0.162    0.168    2.106    2.404
 fft_wrap_pw1pw2_90                 558 11.8    0.109    0.131    2.274    2.355
 dbcsr_add_d                      14353  7.0    0.013    0.016    0.327    2.259
 dbcsr_add_anytype                14353  8.0    0.023    0.199    0.314    2.244
 mp_sum_l                          6100 10.5    1.423    2.188    1.423    2.188
 integrate_four_center_load         458 10.8    0.002    0.003    1.256    2.011
 hfx_load_balance                     1 11.0    0.000    0.000    1.254    2.010
 multiply_cannon_loop              1584 12.3    0.253    0.277    1.667    1.965
 hfx_load_balance_range               1 12.0    0.000    0.001    1.197    1.952
 mp_alltoall_i11v                 12748 11.4    1.900    1.906    1.900    1.906
 cp_dbcsr_plus_fm_fm_t              278  8.3    0.005    0.005    1.842    1.900
 pw_gather_p                       2790 13.2    1.764    1.884    1.764    1.884
 dbcsr_desymmetrize_deep           1249 10.2    0.027    0.040    1.531    1.870
 xc_functional_eval                2323 10.9    0.001    0.008    1.008    1.781
 rs_grid_zero                      1393 11.8    1.578    1.778    1.578    1.778
 pbe_lda_eval                      2323 11.9    1.007    1.773    1.007    1.773
 parallel_gemm_fm                  1711  8.2    0.003    0.003    1.717    1.744
 parallel_gemm_fm_gemm             1711  9.2    0.003    0.003    1.714    1.742
 cp_fm_gemm                        1711 10.2    1.712    1.739    1.712    1.739
 mp_irecv_dm3                     11166 12.7    0.727    1.736    0.727    1.736
 pw_integral_ab_c1d_c1d_gs          278 10.3    1.472    1.490    1.657    1.684
 tddfpt_orthonormalize_psi1_psi      10  6.9    0.024    0.027    1.676    1.677
 dbcsr_finalize                   21947 11.1    0.085    0.504    0.491    1.665
 mp_alltoall_i22                   5082 11.4    1.183    1.654    1.183    1.654
 transfer_pw2rs_10                  278 12.0    0.543    0.618    1.478    1.621
 transfer_rs2pw_10                  280 11.6    0.520    0.553    1.477    1.550
 update_ks_atom                     278  8.6    0.289    0.608    1.157    1.499
 create_qs_kind_set                   1  2.0    0.000    0.000    1.486    1.487
 read_qs_kind                         4  3.0    0.851    0.912    1.486    1.487
 pw_derive                         2505 11.8    1.318    1.427    1.318    1.427
 tddfpt_apply_energy_diff             9  8.0    0.001    0.001    1.261    1.261
 mp_isend_dv                     104288 13.5    0.840    1.205    0.840    1.205
 multiply_cannon_metrocomm3       25344 13.3    0.077    0.082    0.683    1.166
 make_m2s                          3168 11.3    0.049    0.056    1.088    1.163
 pw_copy                           3815 10.9    1.059    1.145    1.059    1.145
 dbcsr_col_vec_to_rep_row          9515  8.0    0.072    0.084    1.007    1.143
 tddfpt_compute_residual_vects        8  7.0    0.001    0.001    1.105    1.105
 dbcsr_rep_row_to_rep_col_vec      9515  8.0    0.057    0.069    0.433    1.069
 make_images                       3168 12.3    0.245    0.296    0.912    0.976
 pw_copy_to_array                  2790 13.2    0.710    0.949    0.710    0.949
 mp_bcast_dv                       9665  9.0    0.713    0.909    0.713    0.909
 mp_bcast_dm                       7784  9.6    0.868    0.900    0.868    0.900
 dbcsr_merge_all                  20065 12.1    0.217    0.664    0.281    0.835
 hybrid_alltoall_any               4417 13.4    0.041    0.082    0.734    0.816
 pw_poisson_set                     279 10.3    0.005    0.006    0.777    0.802
 fft_wrap_pw1pw2_30                 558 11.8    0.022    0.024    0.645    0.765
 calculate_dm_sparse                 98  6.0    0.001    0.001    0.710    0.762
 rs_scatter_matrices                280  9.6    0.007    0.012    0.713    0.760
 dbcsr_iterator_start            136847  9.4    0.362    0.604    0.403    0.756
 pw_copy_from_array                2882 12.7    0.551    0.658    0.551    0.658
 pw_poisson_rebuild                 278 10.3    0.000    0.000    0.638    0.654
 ps_wavelet_create                    1 10.0    0.000    0.000    0.638    0.654
 RS_z_slice_distribution              1 11.0    0.583    0.628    0.638    0.654
 parser_read_line                181630  4.0    0.061    0.066    0.635    0.646
 multiply_cannon_metrocomm4       23760 13.3    0.073    0.078    0.258    0.632
 mp_irecv_dv                     102804 13.5    0.208    0.589    0.208    0.589
 pw_axpy                           2968 10.7    0.517    0.589    0.517    0.589
 parser_read_line_low               200  5.0    0.056    0.263    0.574    0.588
 scale_and_distribute               556 11.3    0.501    0.572    0.501    0.572
 broadcast_input_information        200  6.0    0.134    0.144    0.518    0.552
 pw_zero                           2934 10.6    0.461    0.522    0.461    0.522
 cp_fm_triangular_multiply           60  8.0    0.518    0.520    0.518    0.520
 init_scf_run                         1  3.0    0.000    0.000    0.492    0.492
 xc_2nd_deriv_of_r                 1440 10.0    0.004    0.131    0.012    0.487
 multiply_cannon_multrec          25344 13.3    0.210    0.463    0.219    0.472
 mp_max_i                           753  5.2    0.376    0.466    0.376    0.466
 tddfpt_construct_ground_state_       1  6.0    0.000    0.000    0.464    0.464
 cp_fm_trace_a1b1t1_aa            16500  8.0    0.109    0.119    0.460    0.463
 fft_wrap_pw1pw2_10                 558 11.8    0.007    0.007    0.427    0.433
 cp_fm_symm                          98  7.0    0.415    0.429    0.415    0.429
 multiply_cannon_metrocomm1       25344 13.3    0.040    0.042    0.114    0.398
 dbcsr_copy                       42008  7.8    0.242    0.275    0.352    0.396
 dbcsr_sym_matrix_vector_mult_l    9515  8.0    0.141    0.282    0.250    0.387
 dbcsr_work_create                26066 12.0    0.096    0.234    0.155    0.376
 cp_fm_cholesky_decompose            21  8.0    0.375    0.375    0.375    0.375
 dbcsr_iterator_stop             136847  9.4    0.215    0.340    0.242    0.375
 qs_init_subsys                       1  2.0    0.007    0.007    0.359    0.360
 scf_env_initial_rho_setup            1  4.0    0.000    0.000    0.352    0.353
 cp_fm_triangular_invert             20  8.0    0.345    0.346    0.345    0.346
 make_images_sizes                 3168 13.3    0.004    0.004    0.282    0.323
 mp_alltoall_i44                   3168 14.3    0.278    0.319    0.278    0.319
 mp_allgather_i34                  1584 12.3    0.175    0.312    0.175    0.312
 dbcsr_work_destroy_all           26066 12.9    0.079    0.214    0.119    0.310
 qs_env_setup                         1  3.0    0.000    0.000    0.301    0.309
 qs_env_rebuild_pw_env                2  3.5    0.000    0.000    0.299    0.307
 pw_env_rebuild                       1  5.0    0.001    0.001    0.299    0.307
 mp_cart_sub                       2499 11.2    0.285    0.286    0.285    0.286
 dbcsr_create_new                 63728  9.9    0.214    0.226    0.272    0.285
 mp_alltoall_z11v                   558 14.8    0.275    0.280    0.275    0.280
 make_images_data                  3168 13.3    0.039    0.048    0.206    0.277
 offload_free_buffer                286 10.1    0.063    0.267    0.063    0.267
 mp_bcast_am_src                    200  7.0    0.181    0.218    0.202    0.256
 cp_fm_redistribute_start           150  8.2    0.153    0.190    0.196    0.246
 multiply_cannon_metrocomm2       22176 13.3    0.068    0.079    0.140    0.232
 mp_bcast_i_src                     800  7.0    0.174    0.231    0.174    0.231
 mp_cart_create                    2365 10.5    0.202    0.225    0.205    0.229
 dbcsr_data_new                  337654 12.0    0.139    0.226    0.139    0.226
 dbcsr_scale_anytype              14355  9.0    0.036    0.051    0.178    0.221
 pw_grid_setup                        4  6.0    0.000    0.000    0.192    0.200
 pw_grid_setup_internal               4  7.0    0.004    0.005    0.192    0.200
 mp_rank_compare                   5672 14.0    0.191    0.197    0.191    0.197
 prepare_dr1dr                     1620 11.2    0.141    0.183    0.141    0.183
 dbcsr_data_release              493171 11.6    0.109    0.176    0.109    0.176
 create_fast_col_vec_access       19030  8.0    0.116    0.127    0.158    0.170
 create_fast_row_vec_access       19030  8.0    0.115    0.125    0.158    0.169
 yz_to_xz                           278 14.0    0.008    0.009    0.152    0.156
 copy_fm_to_dbcsr_bc               2583 10.5    0.046    0.050    0.146    0.153
 cp_fm_power                          1  6.0    0.001    0.002    0.153    0.153
 dbcsr_iterator_seek             136847 10.4    0.041    0.151    0.041    0.151
 tddfpt_init_mos                      1  5.0    0.000    0.000    0.144    0.144
 tddfpt_init_ground_state_mos         1  6.0    0.000    0.000    0.144    0.144
 xz_to_yz                           280 13.6    0.007    0.007    0.138    0.140
 tddfpt_compute_ritz_vects            9  7.0    0.004    0.004    0.138    0.138
 vxc_of_r_new                       784  9.0    0.001    0.038    0.003    0.135
 eigensolver                          1  7.0    0.000    0.000    0.132    0.132
 tddfpt_orthogonalize_psi1_psi0      10  6.9    0.000    0.000    0.115    0.121
 pw_grid_sort                         4  8.0    0.076    0.078    0.112    0.116
 compute_max_radius                   1  6.0    0.097    0.100    0.097    0.100
 create_kernel_env                    1  6.0    0.000    0.000    0.080    0.094
 xc_prep_2nd_deriv                    1  7.0    0.000    0.000    0.080    0.094
 dbcsr_special_finalize            4752 13.3    0.023    0.025    0.068    0.094
 pw_scale                           752  9.5    0.072    0.093    0.072    0.093
 merge_index                      20065 13.1    0.017    0.092    0.017    0.092
 dbcsr_destroy                    44604  9.8    0.057    0.060    0.086    0.092
 mp_bcast_iv_src                    200  7.0    0.008    0.083    0.008    0.083
 dbcsr_make_untransposed_blocks    2582 11.3    0.026    0.043    0.063    0.080
 tree_to_linear_d                  3833 13.4    0.034    0.077    0.034    0.077
 dbcsr_make_images_dense            916 11.6    0.013    0.014    0.036    0.075
 -------------------------------------------------------------------------------

 The number of warnings for this run is : 2
 
 -------------------------------------------------------------------------------
  **** **** ******  **  PROGRAM ENDED AT                 2025-04-14 05:24:39.492
 ***** ** ***  *** **   PROGRAM RAN ON                              i03r09c02s12
 **    ****   ******    PROGRAM RAN BY                                   di38fab
 ***** **    ** ** **   PROGRAM PROCESS ID                               2155182
  **** **  *******  **  PROGRAM STOPPED IN /hppfs/scratch/04/di38fab/05_MOL/aUKB
                                           qsEOTmq69kFe5R_nOg/5k_set_final_qzvp/
                                           ABEGEU/aug-cc-pVQZ/TDDFT
