 DBCSR| CPU Multiplication driver                                           BLAS (U)
 DBCSR| Multrec recursion limit                                              512 (U)
 DBCSR| Multiplication stack size                                           1000 (D)
 DBCSR| Maximum elements for images                                    UNLIMITED (U)
 DBCSR| Multiplicative factor virtual images                                   1 (U)
 DBCSR| Use multiplication densification                                       T (D)
 DBCSR| Multiplication size stacks                                             3 (U)
 DBCSR| Use memory pool for CPU allocation                                     F (U)
 DBCSR| Number of 3D layers                                               SINGLE (U)
 DBCSR| Use MPI memory allocation                                              F (U)
 DBCSR| Use RMA algorithm                                                      F (U)
 DBCSR| Use Communication thread                                               T (U)
 DBCSR| Communication thread load                                             75 (D)
 DBCSR| MPI: My process id                                                     0
 DBCSR| MPI: Number of processes                                              96
 DBCSR| OMP: Current number of threads                                         4
 DBCSR| OMP: Max number of threads                                             4
 DBCSR| Split modifier for TAS multiplication algorithm                  1.0E+00 (U)


  **** **** ******  **  PROGRAM STARTED AT               2025-04-27 14:33:14.659
 ***** ** ***  *** **   PROGRAM STARTED ON                          i05r11c02s12
 **    ****   ******    PROGRAM STARTED BY                               di38fab
 ***** **    ** ** **   PROGRAM PROCESS ID                               3425784
  **** **  *******  **  PROGRAM STARTED IN /hppfs/scratch/04/di38fab/07_MOL_non_
                                           aug/05_MOL_non_aug/05_MOL/W4-11+ALK/c
                                           2h2/SZV/TDDFT

 CP2K| version string:                 CP2K version 2025.1 (Development Version)
 CP2K| source code revision number:                             unknown revision
 CP2K| cp2kflags: omp libint fftw3 libxc parallel scalapack max_contr=4         
 CP2K| is freely available from                            https://www.cp2k.org/
 CP2K| Program compiled at                         Thu Apr 10 16:20:23 CEST 2025
 CP2K| Program compiled on                                               login01
 CP2K| Program compiled for                                        Supermuc-foss
 CP2K| Data directory path                  /hppfs/work/pn36zo/di38fab/cp2k/data
 CP2K| Input file name                                                    GW.inp

 GLOBAL| Force Environment number                                              1
 GLOBAL| Basis set file name            /hppfs/scratch/04/di38fab/04_TMD/BASIS_A
 GLOBAL| Potential file name            /hppfs/work/pn36zo/di38fab/cp2k/data/ALL
 GLOBAL| MM Potential file name                                     MM_POTENTIAL
 GLOBAL| Coordinate file name                                      __STD_INPUT__
 GLOBAL| Method name                                                        CP2K
 GLOBAL| Project name                                                       MoS2
 GLOBAL| Run type                                                         ENERGY
 GLOBAL| FFT library                                                       FFTW3
 GLOBAL| Diagonalization library                                       ScaLAPACK
 GLOBAL| DGEMM library                                                      BLAS
 GLOBAL| Orthonormality check for eigenvectors                          DISABLED
 GLOBAL| Matrix multiplication library                                 ScaLAPACK
 GLOBAL| All-to-all communication in single precision                          F
 GLOBAL| FFTs using library dependent lengths                                  F
 GLOBAL| Grid backend                                                       AUTO
 GLOBAL| Global print level                                               MEDIUM
 GLOBAL| MPI I/O enabled                                                       T
 GLOBAL| Total number of message passing processes                            96
 GLOBAL| Number of threads for this process                                    4
 GLOBAL| This output is from process                                           0
 GLOBAL| OpenMP stack size per thread (OMP_STACKSIZE)                    default
 GLOBAL| CPU model name             Intel(R) Xeon(R) Platinum 8174 CPU @ 3.10GHz

 MEMORY| system memory details [Kb]
 MEMORY|                        rank 0           min           max       average
 MEMORY| MemTotal             98436664      98436660      98436708      98436668
 MEMORY| MemFree              83935432      83735480      83969364      83883214
 MEMORY| Buffers                     0             0             0             0
 MEMORY| Cached                2393356       2383964       2411192       2396989
 MEMORY| Slab                  1250476       1241920       1255480       1247714
 MEMORY| SReclaimable           270580        264724        276824        271025
 MEMORY| MemLikelyFree        86599368      86404592      86652680      86551229


 *** Fundamental physical constants (SI units) ***

 *** Literature: B. J. Mohr and B. N. Taylor,
 ***             CODATA recommended values of the fundamental physical
 ***             constants: 2006, Web Version 5.1
 ***             http://physics.nist.gov/constants

 Speed of light in vacuum [m/s]                             2.99792458000000E+08
 Magnetic constant or permeability of vacuum [N/A**2]       1.25663706143592E-06
 Electric constant or permittivity of vacuum [F/m]          8.85418781762039E-12
 Planck constant (h) [J*s]                                  6.62606896000000E-34
 Planck constant (h-bar) [J*s]                              1.05457162825177E-34
 Elementary charge [C]                                      1.60217648700000E-19
 Electron mass [kg]                                         9.10938215000000E-31
 Electron g factor [ ]                                     -2.00231930436220E+00
 Proton mass [kg]                                           1.67262163700000E-27
 Fine-structure constant                                    7.29735253760000E-03
 Rydberg constant [1/m]                                     1.09737315685270E+07
 Avogadro constant [1/mol]                                  6.02214179000000E+23
 Boltzmann constant [J/K]                                   1.38065040000000E-23
 Atomic mass unit [kg]                                      1.66053878200000E-27
 Bohr radius [m]                                            5.29177208590000E-11

 *** Conversion factors ***

 [u] -> [a.u.]                                              1.82288848426455E+03
 [Angstrom] -> [Bohr] = [a.u.]                              1.88972613288564E+00
 [a.u.] = [Bohr] -> [Angstrom]                              5.29177208590000E-01
 [a.u.] -> [s]                                              2.41888432650478E-17
 [a.u.] -> [fs]                                             2.41888432650478E-02
 [a.u.] -> [J]                                              4.35974393937059E-18
 [a.u.] -> [N]                                              8.23872205491840E-08
 [a.u.] -> [K]                                              3.15774647902944E+05
 [a.u.] -> [kJ/mol]                                         2.62549961709828E+03
 [a.u.] -> [kcal/mol]                                       6.27509468713739E+02
 [a.u.] -> [Pa]                                             2.94210107994716E+13
 [a.u.] -> [bar]                                            2.94210107994716E+08
 [a.u.] -> [atm]                                            2.90362800883016E+08
 [a.u.] -> [eV]                                             2.72113838565563E+01
 [a.u.] -> [Hz]                                             6.57968392072181E+15
 [a.u.] -> [1/cm] (wave numbers)                            2.19474631370540E+05
 [a.u./Bohr**2] -> [1/cm]                                   5.14048714338585E+03
 

 CELL_TOP| Volume [angstrom^3]:                                     27000.000000
 CELL_TOP| Vector a [angstrom    30.000     0.000     0.000   |a| =    30.000000
 CELL_TOP| Vector b [angstrom     0.000    30.000     0.000   |b| =    30.000000
 CELL_TOP| Vector c [angstrom     0.000     0.000    30.000   |c| =    30.000000
 CELL_TOP| Angle (b,c), alpha [degree]:                                90.000000
 CELL_TOP| Angle (a,c), beta  [degree]:                                90.000000
 CELL_TOP| Angle (a,b), gamma [degree]:                                90.000000
 CELL_TOP| Numerically orthorhombic:                                         YES
 CELL_TOP| Periodicity                                                      NONE

 GENERATE|  Preliminary Number of Bonds generated:                             0
 GENERATE|  Achieved consistency in connectivity generation.

 CELL| Volume [angstrom^3]:                                         27000.000000
 CELL| Vector a [angstrom]:      30.000     0.000     0.000   |a| =    30.000000
 CELL| Vector b [angstrom]:       0.000    30.000     0.000   |b| =    30.000000
 CELL| Vector c [angstrom]:       0.000     0.000    30.000   |c| =    30.000000
 CELL| Angle (b,c), alpha [degree]:                                    90.000000
 CELL| Angle (a,c), beta  [degree]:                                    90.000000
 CELL| Angle (a,b), gamma [degree]:                                    90.000000
 CELL| Numerically orthorhombic:                                             YES
 CELL| Periodicity                                                          NONE

 CELL_REF| Volume [angstrom^3]:                                     27000.000000
 CELL_REF| Vector a [angstrom    30.000     0.000     0.000   |a| =    30.000000
 CELL_REF| Vector b [angstrom     0.000    30.000     0.000   |b| =    30.000000
 CELL_REF| Vector c [angstrom     0.000     0.000    30.000   |c| =    30.000000
 CELL_REF| Angle (b,c), alpha [degree]:                                90.000000
 CELL_REF| Angle (a,c), beta  [degree]:                                90.000000
 CELL_REF| Angle (a,b), gamma [degree]:                                90.000000
 CELL_REF| Numerically orthorhombic:                                         YES
 CELL_REF| Periodicity                                                      NONE

 *******************************************************************************
 *******************************************************************************
 **                                                                           **
 **     #####                         ##              ##                      **
 **    ##   ##            ##          ##              ##                      **
 **   ##     ##                       ##            ######                    **
 **   ##     ##  ##   ##  ##   #####  ##  ##   ####   ##    #####    #####    **
 **   ##     ##  ##   ##  ##  ##      ## ##   ##      ##   ##   ##  ##   ##   **
 **   ##  ## ##  ##   ##  ##  ##      ####     ###    ##   ######   ######    **
 **    ##  ###   ##   ##  ##  ##      ## ##      ##   ##   ##       ##        **
 **     #######   #####   ##   #####  ##  ##  ####    ##    #####   ##        **
 **           ##                                                    ##        **
 **                                                                           **
 **                                                ... make the atoms dance   **
 **                                                                           **
 **            Copyright (C) by CP2K developers group (2000-2025)             **
 **                      J. Chem. Phys. 152, 194103 (2020)                    **
 **                                                                           **
 *******************************************************************************

 DFT| Spin restricted Kohn-Sham (RKS) calculation                            RKS
 DFT| Multiplicity                                                             1
 DFT| Number of spin states                                                    1
 DFT| Charge                                                                   0
 DFT| Self-interaction correction (SIC)                                       NO
 DFT| Cutoffs: density                                              1.000000E-10
 DFT|          gradient                                             1.000000E-10
 DFT|          tau                                                  1.000000E-10
 DFT|          cutoff_smoothing_range                               0.000000E+00
 DFT| XC density smoothing                                                  NONE
 DFT| XC derivatives                                                          PW

 FUNCTIONAL| PBE:
 FUNCTIONAL| J.P.Perdew, K.Burke, M.Ernzerhof, Phys. Rev. Letter, vol. 77, n 18,
 FUNCTIONAL|  pp. 3865-3868, (1996)sx=0.750sc=1.000{spin unpolarized}           


 QS| Method:                                                                GAPW
 QS| Density plane wave grid type                        NON-SPHERICAL FULLSPACE
 QS| Number of grid levels:                                                    4
 QS| Density cutoff [a.u.]:                                                250.0
 QS| Multi grid cutoff [a.u.]: 1) grid level                               250.0
 QS|                           2) grid level                                83.3
 QS|                           3) grid level                                27.8
 QS|                           4) grid level                                 9.3
 QS| Grid level progression factor:                                          3.0
 QS| Relative density cutoff [a.u.]:                                        50.0
 QS| Interaction thresholds: eps_pgf_orb:                                1.0E-12
 QS|                         eps_filter_matrix:                          0.0E+00
 QS|                         eps_core_charge:                            1.0E-14
 QS|                         eps_rho_gspace:                             1.0E-12
 QS|                         eps_rho_rspace:                             1.0E-12
 QS|                         eps_gvg_rspace:                             1.0E-06
 QS|                         eps_ppl:                                    1.0E-02
 QS|                         eps_ppnl:                                   1.0E-08
 QS| GAPW|      One center basis from orbital basis primitives
 QS| GAPW|                   eps_fit:                                    1.0E-04
 QS| GAPW|                   eps_iso:                                    1.0E-12
 QS| GAPW|                   eps_svd:                                    1.0E-08
 QS| GAPW|                   eps_cpc:                                    1.0E-12
 QS| GAPW|   atom-r-grid: quadrature:                                     GC_LOG
 QS| GAPW|      atom-s-grid:  max l :                                          4
 QS| GAPW|      max_l_rho0 :                                                   2


 ATOMIC KIND INFORMATION

  1. Atomic kind: H                                     Number of atoms:       2

     Orbital Basis Set                                         SVP-MOLOPT-GGA-ae

       Number of orbital shell sets:                                           1
       Number of orbital shells:                                               3
       Number of primitive Cartesian functions:                                4
       Number of Cartesian basis functions:                                    5
       Number of spherical basis functions:                                    5
       Norm type:                                                              2

       Normalised Cartesian orbitals:

                        Set   Shell   Orbital            Exponent    Coefficient

                          1       1    2s               12.248855       0.310040
                                                         1.446686       0.373852
                                                         0.374948       0.205449
                                                         0.111920       0.009149

                          1       2    3s               12.248855      -0.144753
                                                         1.446686      -0.188851
                                                         0.374948       0.007287
                                                         0.111920       0.143650

                          1       3    3px              12.248855      -0.764411
                                                         1.446686       0.896497
                                                         0.374948       0.280770
                                                         0.111920       0.007225
                          1       3    3py              12.248855      -0.764411
                                                         1.446686       0.896497
                                                         0.374948       0.280770
                                                         0.111920       0.007225
                          1       3    3pz              12.248855      -0.764411
                                                         1.446686       0.896497
                                                         0.374948       0.280770
                                                         0.111920       0.007225

     RI Auxiliary Basis Set                                    aug-cc-pV5Z-RIFIT

       Number of orbital shell sets:                                          27
       Number of orbital shells:                                              27
       Number of primitive Cartesian functions:                               27
       Number of Cartesian basis functions:                                  182
       Number of spherical basis functions:                                  127
       Norm type:                                                              2

       Normalised Cartesian orbitals:

                        Set   Shell   Orbital            Exponent    Coefficient

                          1       1    1s                0.110911       0.136975

                          2       1    1px               0.196067       0.185971
                          2       1    1py               0.196067       0.185971
                          2       1    1pz               0.196067       0.185971

                          3       1    1dx2              0.233601       0.129193
                          3       1    1dxy              0.233601       0.223769
                          3       1    1dxz              0.233601       0.223769
                          3       1    1dy2              0.233601       0.129193
                          3       1    1dyz              0.233601       0.223769
                          3       1    1dz2              0.233601       0.129193

                          4       1    1fx3              0.236155       0.057233
                          4       1    1fx2y             0.236155       0.127977
                          4       1    1fx2z             0.236155       0.127977
                          4       1    1fxy2             0.236155       0.127977
                          4       1    1fxyz             0.236155       0.221663
                          4       1    1fxz2             0.236155       0.127977
                          4       1    1fy3              0.236155       0.057233
                          4       1    1fy2z             0.236155       0.127977
                          4       1    1fyz2             0.236155       0.127977
                          4       1    1fz3              0.236155       0.057233

                          5       1    1s                0.236911       0.242019

                          6       1    1px               0.347892       0.380843
                          6       1    1py               0.347892       0.380843
                          6       1    1pz               0.347892       0.380843

                          7       1    1s                0.506054       0.427620

                          8       1    1fx3              0.572873       0.420326
                          8       1    1fx2y             0.572873       0.939876
                          8       1    1fx2z             0.572873       0.939876
                          8       1    1fxy2             0.572873       0.939876
                          8       1    1fxyz             0.572873       1.627914
                          8       1    1fxz2             0.572873       0.939876
                          8       1    1fy3              0.572873       0.420326
                          8       1    1fy2z             0.572873       0.939876
                          8       1    1fyz2             0.572873       0.939876
                          8       1    1fz3              0.572873       0.420326

                          9       1    1dx2              0.625366       0.723843
                          9       1    1dxy              0.625366       1.253733
                          9       1    1dxz              0.625366       1.253733
                          9       1    1dy2              0.625366       0.723843
                          9       1    1dyz              0.625366       1.253733
                          9       1    1dz2              0.625366       0.723843

                         10       1    1gx4              0.796320       0.594876
                         10       1    1gx3y             0.796320       1.573894
                         10       1    1gx3z             0.796320       1.573894
                         10       1    1gx2y2            0.796320       2.031888
                         10       1    1gx2yz            0.796320       3.519333
                         10       1    1gx2z2            0.796320       2.031888
                         10       1    1gxy3             0.796320       1.573894
                         10       1    1gxy2z            0.796320       3.519333
                         10       1    1gxyz2            0.796320       3.519333
                         10       1    1gxz3             0.796320       1.573894
                         10       1    1gy4              0.796320       0.594876
                         10       1    1gy3z             0.796320       1.573894
                         10       1    1gy2z2            0.796320       2.031888
                         10       1    1gyz3             0.796320       1.573894
                         10       1    1gz4              0.796320       0.594876

                         11       1    1px               0.805545       1.087808
                         11       1    1py               0.805545       1.087808
                         11       1    1pz               0.805545       1.087808

                         12       1    1dx2              0.979237       1.586584
                         12       1    1dxy              0.979237       2.748044
                         12       1    1dxz              0.979237       2.748044
                         12       1    1dy2              0.979237       1.586584
                         12       1    1dyz              0.979237       2.748044
                         12       1    1dz2              0.979237       1.586584

                         13       1    1s                0.994218       0.709613

                         14       1    1hx5              1.034980       0.829608
                         14       1    1hx4y             1.034980       2.488825
                         14       1    1hx4z             1.034980       2.488825
                         14       1    1hx3y2            1.034980       3.801742
                         14       1    1hx3yz            1.034980       6.584811
                         14       1    1hx3z2            1.034980       3.801742
                         14       1    1hx2y3            1.034980       3.801742
                         14       1    1hx2y2z           1.034980       8.500954
                         14       1    1hx2yz2           1.034980       8.500954
                         14       1    1hx2z3            1.034980       3.801742
                         14       1    1hxy4             1.034980       2.488825
                         14       1    1hxy3z            1.034980       6.584811
                         14       1    1hxy2z2           1.034980       8.500954
                         14       1    1hxyz3            1.034980       6.584811
                         14       1    1hxz4             1.034980       2.488825
                         14       1    1hy5              1.034980       0.829608
                         14       1    1hy4z             1.034980       2.488825
                         14       1    1hy3z2            1.034980       3.801742
                         14       1    1hy2z3            1.034980       3.801742
                         14       1    1hyz4             1.034980       2.488825
                         14       1    1hz5              1.034980       0.829608

                         15       1    1fx3              1.198110       2.210915
                         15       1    1fx2y             1.198110       4.943756
                         15       1    1fx2z             1.198110       4.943756
                         15       1    1fxy2             1.198110       4.943756
                         15       1    1fxyz             1.198110       8.562836
                         15       1    1fxz2             1.198110       4.943756
                         15       1    1fy3              1.198110       2.210915
                         15       1    1fy2z             1.198110       4.943756
                         15       1    1fyz2             1.198110       4.943756
                         15       1    1fz3              1.198110       2.210915

                         16       1    1gx4              1.231920       1.974865
                         16       1    1gx3y             1.231920       5.225001
                         16       1    1gx3z             1.231920       5.225001
                         16       1    1gx2y2            1.231920       6.745447
                         16       1    1gx2yz            1.231920      11.683456
                         16       1    1gx2z2            1.231920       6.745447
                         16       1    1gxy3             1.231920       5.225001
                         16       1    1gxy2z            1.231920      11.683456
                         16       1    1gxyz2            1.231920      11.683456
                         16       1    1gxz3             1.231920       5.225001
                         16       1    1gy4              1.231920       1.974865
                         16       1    1gy3z             1.231920       5.225001
                         16       1    1gy2z2            1.231920       6.745447
                         16       1    1gyz3             1.231920       5.225001
                         16       1    1gz4              1.231920       1.974865

                         17       1    1px               1.248660       1.881462
                         17       1    1py               1.248660       1.881462
                         17       1    1pz               1.248660       1.881462

                         18       1    1dx2              1.710630       4.211459
                         18       1    1dxy              1.710630       7.294461
                         18       1    1dxz              1.710630       7.294461
                         18       1    1dy2              1.710630       4.211459
                         18       1    1dyz              1.710630       7.294461
                         18       1    1dz2              1.710630       4.211459

                         19       1    1s                1.775100       1.096042

                         20       1    1px               2.052170       3.501118
                         20       1    1py               2.052170       3.501118
                         20       1    1pz               2.052170       3.501118

                         21       1    1gx4              2.987800      22.576266
                         21       1    1gx3y             2.987800      59.731185
                         21       1    1gx3z             2.987800      59.731185
                         21       1    1gx2y2            2.987800      77.112629
                         21       1    1gx2yz            2.987800     133.562991
                         21       1    1gx2z2            2.987800      77.112629
                         21       1    1gxy3             2.987800      59.731185
                         21       1    1gxy2z            2.987800     133.562991
                         21       1    1gxyz2            2.987800     133.562991
                         21       1    1gxz3             2.987800      59.731185
                         21       1    1gy4              2.987800      22.576266
                         21       1    1gy3z             2.987800      59.731185
                         21       1    1gy2z2            2.987800      77.112629
                         21       1    1gyz3             2.987800      59.731185
                         21       1    1gz4              2.987800      22.576266

                         22       1    1fx3              3.101510      18.792914
                         22       1    1fx2y             3.101510      42.022232
                         22       1    1fx2z             3.101510      42.022232
                         22       1    1fxy2             3.101510      42.022232
                         22       1    1fxyz             3.101510      72.784641
                         22       1    1fxz2             3.101510      42.022232
                         22       1    1fy3              3.101510      18.792914
                         22       1    1fy2z             3.101510      42.022232
                         22       1    1fyz2             3.101510      42.022232
                         22       1    1fz3              3.101510      18.792914

                         23       1    1hx5              3.247390      34.106027
                         23       1    1hx4y             3.247390     102.318080
                         23       1    1hx4z             3.247390     102.318080
                         23       1    1hx3y2            3.247390     156.293448
                         23       1    1hx3yz            3.247390     270.708193
                         23       1    1hx3z2            3.247390     156.293448
                         23       1    1hx2y3            3.247390     156.293448
                         23       1    1hx2y2z           3.247390     349.482775
                         23       1    1hx2yz2           3.247390     349.482775
                         23       1    1hx2z3            3.247390     156.293448
                         23       1    1hxy4             3.247390     102.318080
                         23       1    1hxy3z            3.247390     270.708193
                         23       1    1hxy2z2           3.247390     349.482775
                         23       1    1hxyz3            3.247390     270.708193
                         23       1    1hxz4             3.247390     102.318080
                         23       1    1hy5              3.247390      34.106027
                         23       1    1hy4z             3.247390     102.318080
                         23       1    1hy3z2            3.247390     156.293448
                         23       1    1hy2z3            3.247390     156.293448
                         23       1    1hyz4             3.247390     102.318080
                         23       1    1hz5              3.247390      34.106027

                         24       1    1dx2              3.858160      17.481346
                         24       1    1dxy              3.858160      30.278579
                         24       1    1dxz              3.858160      30.278579
                         24       1    1dy2              3.858160      17.481346
                         24       1    1dyz              3.858160      30.278579
                         24       1    1dz2              3.858160      17.481346

                         25       1    1s                4.922970       2.355486

                         26       1    1px               5.974580      13.314483
                         26       1    1py               5.974580      13.314483
                         26       1    1pz               5.974580      13.314483

                         27       1    1s               23.321500       7.563581

       Atomic covalent radius [Angstrom]:                                  0.320

       Atomic van der Waals radius [Angstrom]:                             1.090

     The atoms of this atomic kind are PAW atoms (GAPW):
       Hard Gaussian function radius:                                      1.200
       Rho0 radius:                                                        1.200
       Maximum GTO radius used for PAW projector construction:            24.566

     GAPW Soft Basis Set                                  SVP-MOLOPT-GGA-ae_soft

       Number of orbital shell sets:                                           1
       Number of orbital shells:                                               3
       Number of primitive Cartesian functions:                                3
       Number of Cartesian basis functions:                                    5
       Number of spherical basis functions:                                    5
       Norm type:                                                              2

       Normalised Cartesian orbitals:

                        Set   Shell   Orbital            Exponent    Coefficient

                          1       1    2s                1.446686       0.373852
                                                         0.374948       0.205449
                                                         0.111920       0.009149

                          1       2    3s                1.446686      -0.188851
                                                         0.374948       0.007287
                                                         0.111920       0.143650

                          1       3    3px               1.446686       0.896497
                                                         0.374948       0.280770
                                                         0.111920       0.007225
                          1       3    3py               1.446686       0.896497
                                                         0.374948       0.280770
                                                         0.111920       0.007225
                          1       3    3pz               1.446686       0.896497
                                                         0.374948       0.280770
                                                         0.111920       0.007225

     AE Potential information for                                            ALL

       Description:                                       All-electron potential
                                          Krack, Parrinello, PCCP 2, 2105 (2000)

       Gaussian exponent of the core charge distribution:              12.500000
       Electronic configuration (s p d ...):                           1   0   0

  2. Atomic kind: C                                     Number of atoms:       2

     Orbital Basis Set                                         SVP-MOLOPT-GGA-ae

       Number of orbital shell sets:                                           2
       Number of orbital shells:                                               6
       Number of primitive Cartesian functions:                               11
       Number of Cartesian basis functions:                                   15
       Number of spherical basis functions:                                   14
       Norm type:                                                              2

       Normalised Cartesian orbitals:

                        Set   Shell   Orbital            Exponent    Coefficient

                          1       1    2px               4.145546       1.425967
                                                         0.937529       0.673511
                                                         0.300899       0.144116
                                                         0.096935       0.005344
                          1       1    2py               4.145546       1.425967
                                                         0.937529       0.673511
                                                         0.300899       0.144116
                                                         0.096935       0.005344
                          1       1    2pz               4.145546       1.425967
                                                         0.937529       0.673511
                                                         0.300899       0.144116
                                                         0.096935       0.005344

                          1       2    3px               4.145546      -0.833488
                                                         0.937529      -0.414500
                                                         0.300899       0.082631
                                                         0.096935       0.066903
                          1       2    3py               4.145546      -0.833488
                                                         0.937529      -0.414500
                                                         0.300899       0.082631
                                                         0.096935       0.066903
                          1       2    3pz               4.145546      -0.833488
                                                         0.937529      -0.414500
                                                         0.300899       0.082631
                                                         0.096935       0.066903

                          1       3    3dx2              4.145546       0.718979
                                                         0.937529       0.830801
                                                         0.300899       0.105504
                                                         0.096935       0.001258
                          1       3    3dxy              4.145546       1.245309
                                                         0.937529       1.438990
                                                         0.300899       0.182739
                                                         0.096935       0.002179
                          1       3    3dxz              4.145546       1.245309
                                                         0.937529       1.438990
                                                         0.300899       0.182739
                                                         0.096935       0.002179
                          1       3    3dy2              4.145546       0.718979
                                                         0.937529       0.830801
                                                         0.300899       0.105504
                                                         0.096935       0.001258
                          1       3    3dyz              4.145546       1.245309
                                                         0.937529       1.438990
                                                         0.300899       0.182739
                                                         0.096935       0.002179
                          1       3    3dz2              4.145546       0.718979
                                                         0.937529       0.830801
                                                         0.300899       0.105504
                                                         0.096935       0.001258

                          2       1    1s             1238.394264      -0.490536
                                                       186.270922       1.801845
                                                        40.805234       2.242010
                                                        10.501907       2.110671
                                                         3.176528       0.666384
                                                         0.523772      -0.029268
                                                         0.161278       0.024253

                          2       2    2s             1238.394264       0.147138
                                                       186.270922      -0.108171
                                                        40.805234       0.350132
                                                        10.501907      -0.033488
                                                         3.176528      -0.079506
                                                         0.523772       0.279468
                                                         0.161278       0.080328

                          2       3    3s             1238.394264     -12.484315
                                                       186.270922       1.755878
                                                        40.805234      -2.174132
                                                        10.501907      -0.974990
                                                         3.176528      -0.308205
                                                         0.523772      -0.382710
                                                         0.161278       0.225687

     RI Auxiliary Basis Set                                    aug-cc-pV5Z-RIFIT

       Number of orbital shell sets:                                          46
       Number of orbital shells:                                              46
       Number of primitive Cartesian functions:                               46
       Number of Cartesian basis functions:                                  371
       Number of spherical basis functions:                                  242
       Norm type:                                                              2

       Normalised Cartesian orbitals:

                        Set   Shell   Orbital            Exponent    Coefficient

                          1       1    1s                0.062545       0.089136

                          2       1    1dx2              0.084789       0.021928
                          2       1    1dxy              0.084789       0.037981
                          2       1    1dxz              0.084789       0.037981
                          2       1    1dy2              0.084789       0.021928
                          2       1    1dyz              0.084789       0.037981
                          2       1    1dz2              0.084789       0.021928

                          3       1    1px               0.090000       0.070266
                          3       1    1py               0.090000       0.070266
                          3       1    1pz               0.090000       0.070266

                          4       1    1s                0.118498       0.143944

                          5       1    1fx3              0.135351       0.016358
                          5       1    1fx2y             0.135351       0.036579
                          5       1    1fx2z             0.135351       0.036579
                          5       1    1fxy2             0.135351       0.036579
                          5       1    1fxyz             0.135351       0.063356
                          5       1    1fxz2             0.135351       0.036579
                          5       1    1fy3              0.135351       0.016358
                          5       1    1fy2z             0.135351       0.036579
                          5       1    1fyz2             0.135351       0.036579
                          5       1    1fz3              0.135351       0.016358

                          6       1    1dx2              0.211749       0.108792
                          6       1    1dxy              0.211749       0.188433
                          6       1    1dxz              0.211749       0.188433
                          6       1    1dy2              0.211749       0.108792
                          6       1    1dyz              0.211749       0.188433
                          6       1    1dz2              0.211749       0.108792

                          7       1    1px               0.223793       0.219406
                          7       1    1py               0.223793       0.219406
                          7       1    1pz               0.223793       0.219406

                          8       1    1gx4              0.241717       0.022415
                          8       1    1gx3y             0.241717       0.059303
                          8       1    1gx3z             0.241717       0.059303
                          8       1    1gx2y2            0.241717       0.076560
                          8       1    1gx2yz            0.241717       0.132606
                          8       1    1gx2z2            0.241717       0.076560
                          8       1    1gxy3             0.241717       0.059303
                          8       1    1gxy2z            0.241717       0.132606
                          8       1    1gxyz2            0.241717       0.132606
                          8       1    1gxz3             0.241717       0.059303
                          8       1    1gy4              0.241717       0.022415
                          8       1    1gy3z             0.241717       0.059303
                          8       1    1gy2z2            0.241717       0.076560
                          8       1    1gyz3             0.241717       0.059303
                          8       1    1gz4              0.241717       0.022415

                          9       1    1s                0.257433       0.257578

                         10       1    1fx3              0.334627       0.125377
                         10       1    1fx2y             0.334627       0.280351
                         10       1    1fx2z             0.334627       0.280351
                         10       1    1fxy2             0.334627       0.280351
                         10       1    1fxyz             0.334627       0.485582
                         10       1    1fxz2             0.334627       0.280351
                         10       1    1fy3              0.334627       0.125377
                         10       1    1fy2z             0.334627       0.280351
                         10       1    1fyz2             0.334627       0.280351
                         10       1    1fz3              0.334627       0.125377

                         11       1    1px               0.353612       0.388686
                         11       1    1py               0.353612       0.388686
                         11       1    1pz               0.353612       0.388686

                         12       1    1dx2              0.413013       0.350224
                         12       1    1dxy              0.413013       0.606606
                         12       1    1dxz              0.413013       0.606606
                         12       1    1dy2              0.413013       0.350224
                         12       1    1dyz              0.413013       0.606606
                         12       1    1dz2              0.413013       0.350224

                         13       1    1hx5              0.475436       0.066205
                         13       1    1hx4y             0.475436       0.198616
                         13       1    1hx4z             0.475436       0.198616
                         13       1    1hx3y2            0.475436       0.303391
                         13       1    1hx3yz            0.475436       0.525489
                         13       1    1hx3z2            0.475436       0.303391
                         13       1    1hx2y3            0.475436       0.303391
                         13       1    1hx2y2z           0.475436       0.678403
                         13       1    1hx2yz2           0.475436       0.678403
                         13       1    1hx2z3            0.475436       0.303391
                         13       1    1hxy4             0.475436       0.198616
                         13       1    1hxy3z            0.475436       0.525489
                         13       1    1hxy2z2           0.475436       0.678403
                         13       1    1hxyz3            0.475436       0.525489
                         13       1    1hxz4             0.475436       0.198616
                         13       1    1hy5              0.475436       0.066205
                         13       1    1hy4z             0.475436       0.198616
                         13       1    1hy3z2            0.475436       0.303391
                         13       1    1hy2z3            0.475436       0.303391
                         13       1    1hyz4             0.475436       0.198616
                         13       1    1hz5              0.475436       0.066205

                         14       1    1s                0.555806       0.458778

                         15       1    1gx4              0.593235       0.264734
                         15       1    1gx3y             0.593235       0.700419
                         15       1    1gx3z             0.593235       0.700419
                         15       1    1gx2y2            0.593235       0.904237
                         15       1    1gx2yz            0.593235       1.566185
                         15       1    1gx2z2            0.593235       0.904237
                         15       1    1gxy3             0.593235       0.700419
                         15       1    1gxy2z            0.593235       1.566185
                         15       1    1gxyz2            0.593235       1.566185
                         15       1    1gxz3             0.593235       0.700419
                         15       1    1gy4              0.593235       0.264734
                         15       1    1gy3z             0.593235       0.700419
                         15       1    1gy2z2            0.593235       0.904237
                         15       1    1gyz3             0.593235       0.700419
                         15       1    1gz4              0.593235       0.264734

                         16       1    1fx3              0.603184       0.472027
                         16       1    1fx2y             0.603184       1.055484
                         16       1    1fx2z             0.603184       1.055484
                         16       1    1fxy2             0.603184       1.055484
                         16       1    1fxyz             0.603184       1.828151
                         16       1    1fxz2             0.603184       1.055484
                         16       1    1fy3              0.603184       0.472027
                         16       1    1fy2z             0.603184       1.055484
                         16       1    1fyz2             0.603184       1.055484
                         16       1    1fz3              0.603184       0.472027

                         17       1    1px               0.705145       0.921060
                         17       1    1py               0.705145       0.921060
                         17       1    1pz               0.705145       0.921060

                         18       1    1dx2              0.759964       1.018116
                         18       1    1dxy              0.759964       1.763429
                         18       1    1dxz              0.759964       1.763429
                         18       1    1dy2              0.759964       1.018116
                         18       1    1dyz              0.759964       1.763429
                         18       1    1dz2              0.759964       1.018116

                         19       1    1ix6              0.833067       0.225542
                         19       1    1ix5y             0.833067       0.748038
                         19       1    1ix5z             0.833067       0.748038
                         19       1    1ix4y2            0.833067       1.295641
                         19       1    1ix4yz            0.833067       2.244115
                         19       1    1ix4z2            0.833067       1.295641
                         19       1    1ix3y3            0.833067       1.533023
                         19       1    1ix3y2z           0.833067       3.427943
                         19       1    1ix3yz2           0.833067       3.427943
                         19       1    1ix3z3            0.833067       1.533023
                         19       1    1ix2y4            0.833067       1.295641
                         19       1    1ix2y3z           0.833067       3.427943
                         19       1    1ix2y2z2          0.833067       4.425455
                         19       1    1ix2yz3           0.833067       3.427943
                         19       1    1ix2z4            0.833067       1.295641
                         19       1    1ixy5             0.833067       0.748038
                         19       1    1ixy4z            0.833067       2.244115
                         19       1    1ixy3z2           0.833067       3.427943
                         19       1    1ixy2z3           0.833067       3.427943
                         19       1    1ixyz4            0.833067       2.244115
                         19       1    1ixz5             0.833067       0.748038
                         19       1    1iy6              0.833067       0.225542
                         19       1    1iy5z             0.833067       0.748038
                         19       1    1iy4z2            0.833067       1.295641
                         19       1    1iy3z3            0.833067       1.533023
                         19       1    1iy2z4            0.833067       1.295641
                         19       1    1iyz5             0.833067       0.748038
                         19       1    1iz6              0.833067       0.225542

                         20       1    1hx5              0.860125       0.454642
                         20       1    1hx4y             0.860125       1.363925
                         20       1    1hx4z             0.860125       1.363925
                         20       1    1hx3y2            0.860125       2.083430
                         20       1    1hx3yz            0.860125       3.608607
                         20       1    1hx3z2            0.860125       2.083430
                         20       1    1hx2y3            0.860125       2.083430
                         20       1    1hx2y2z           0.860125       4.658691
                         20       1    1hx2yz2           0.860125       4.658691
                         20       1    1hx2z3            0.860125       2.083430
                         20       1    1hxy4             0.860125       1.363925
                         20       1    1hxy3z            0.860125       3.608607
                         20       1    1hxy2z2           0.860125       4.658691
                         20       1    1hxyz3            0.860125       3.608607
                         20       1    1hxz4             0.860125       1.363925
                         20       1    1hy5              0.860125       0.454642
                         20       1    1hy4z             0.860125       1.363925
                         20       1    1hy3z2            0.860125       2.083430
                         20       1    1hy2z3            0.860125       2.083430
                         20       1    1hyz4             0.860125       1.363925
                         20       1    1hz5              0.860125       0.454642

                         21       1    1s                0.944763       0.682971

                         22       1    1gx4              1.023150       1.185137
                         22       1    1gx3y             1.023150       3.135578
                         22       1    1gx3z             1.023150       3.135578
                         22       1    1gx2y2            1.023150       4.048013
                         22       1    1gx2yz            1.023150       7.011365
                         22       1    1gx2z2            1.023150       4.048013
                         22       1    1gxy3             1.023150       3.135578
                         22       1    1gxy2z            1.023150       7.011365
                         22       1    1gxyz2            1.023150       7.011365
                         22       1    1gxz3             1.023150       3.135578
                         22       1    1gy4              1.023150       1.185137
                         22       1    1gy3z             1.023150       3.135578
                         22       1    1gy2z2            1.023150       4.048013
                         22       1    1gyz3             1.023150       3.135578
                         22       1    1gz4              1.023150       1.185137

                         23       1    1fx3              1.114180       1.877604
                         23       1    1fx2y             1.114180       4.198450
                         23       1    1fx2z             1.114180       4.198450
                         23       1    1fxy2             1.114180       4.198450
                         23       1    1fxyz             1.114180       7.271929
                         23       1    1fxz2             1.114180       4.198450
                         23       1    1fy3              1.114180       1.877604
                         23       1    1fy2z             1.114180       4.198450
                         23       1    1fyz2             1.114180       4.198450
                         23       1    1fz3              1.114180       1.877604

                         24       1    1px               1.420590       2.210681
                         24       1    1py               1.420590       2.210681
                         24       1    1pz               1.420590       2.210681

                         25       1    1hx5              1.508080       2.819833
                         25       1    1hx4y             1.508080       8.459499
                         25       1    1hx4z             1.508080       8.459499
                         25       1    1hx3y2            1.508080      12.922099
                         25       1    1hx3yz            1.508080      22.381731
                         25       1    1hx3z2            1.508080      12.922099
                         25       1    1hx2y3            1.508080      12.922099
                         25       1    1hx2y2z           1.508080      28.894691
                         25       1    1hx2yz2           1.508080      28.894691
                         25       1    1hx2z3            1.508080      12.922099
                         25       1    1hxy4             1.508080       8.459499
                         25       1    1hxy3z            1.508080      22.381731
                         25       1    1hxy2z2           1.508080      28.894691
                         25       1    1hxyz3            1.508080      22.381731
                         25       1    1hxz4             1.508080       8.459499
                         25       1    1hy5              1.508080       2.819833
                         25       1    1hy4z             1.508080       8.459499
                         25       1    1hy3z2            1.508080      12.922099
                         25       1    1hy2z3            1.508080      12.922099
                         25       1    1hyz4             1.508080       8.459499
                         25       1    1hz5              1.508080       2.819833

                         26       1    1dx2              1.639980       3.911803
                         26       1    1dxy              1.639980       6.775441
                         26       1    1dxz              1.639980       6.775441
                         26       1    1dy2              1.639980       3.911803
                         26       1    1dyz              1.639980       6.775441
                         26       1    1dz2              1.639980       3.911803

                         27       1    1s                1.697980       1.060131

                         28       1    1ix6              1.702580       3.291024
                         28       1    1ix5y             1.702580      10.915092
                         28       1    1ix5z             1.702580      10.915092
                         28       1    1ix4y2            1.702580      18.905493
                         28       1    1ix4yz            1.702580      32.745275
                         28       1    1ix4z2            1.702580      18.905493
                         28       1    1ix3y3            1.702580      22.369282
                         28       1    1ix3y2z           1.702580      50.019234
                         28       1    1ix3yz2           1.702580      50.019234
                         28       1    1ix3z3            1.702580      22.369282
                         28       1    1ix2y4            1.702580      18.905493
                         28       1    1ix2y3z           1.702580      50.019234
                         28       1    1ix2y2z2          1.702580      64.574554
                         28       1    1ix2yz3           1.702580      50.019234
                         28       1    1ix2z4            1.702580      18.905493
                         28       1    1ixy5             1.702580      10.915092
                         28       1    1ixy4z            1.702580      32.745275
                         28       1    1ixy3z2           1.702580      50.019234
                         28       1    1ixy2z3           1.702580      50.019234
                         28       1    1ixyz4            1.702580      32.745275
                         28       1    1ixz5             1.702580      10.915092
                         28       1    1iy6              1.702580       3.291024
                         28       1    1iy5z             1.702580      10.915092
                         28       1    1iy4z2            1.702580      18.905493
                         28       1    1iy3z3            1.702580      22.369282
                         28       1    1iy2z4            1.702580      18.905493
                         28       1    1iyz5             1.702580      10.915092
                         28       1    1iz6              1.702580       3.291024

                         29       1    1fx3              2.054360       7.438351
                         29       1    1fx2y             2.054360      16.632659
                         29       1    1fx2z             2.054360      16.632659
                         29       1    1fxy2             2.054360      16.632659
                         29       1    1fxyz             2.054360      28.808611
                         29       1    1fxz2             2.054360      16.632659
                         29       1    1fy3              2.054360       7.438351
                         29       1    1fy2z             2.054360      16.632659
                         29       1    1fyz2             2.054360      16.632659
                         29       1    1fz3              2.054360       7.438351

                         30       1    1gx4              2.155990       9.203732
                         30       1    1gx3y             2.155990      24.350786
                         30       1    1gx3z             2.155990      24.350786
                         30       1    1gx2y2            2.155990      31.436730
                         30       1    1gx2yz            2.155990      54.450013
                         30       1    1gx2z2            2.155990      31.436730
                         30       1    1gxy3             2.155990      24.350786
                         30       1    1gxy2z            2.155990      54.450013
                         30       1    1gxyz2            2.155990      54.450013
                         30       1    1gxz3             2.155990      24.350786
                         30       1    1gy4              2.155990       9.203732
                         30       1    1gy3z             2.155990      24.350786
                         30       1    1gy2z2            2.155990      31.436730
                         30       1    1gyz3             2.155990      24.350786
                         30       1    1gz4              2.155990       9.203732

                         31       1    1px               2.540790       4.572472
                         31       1    1py               2.540790       4.572472
                         31       1    1pz               2.540790       4.572472

                         32       1    1hx5              2.702190      18.768121
                         32       1    1hx4y             2.702190      56.304362
                         32       1    1hx4z             2.702190      56.304362
                         32       1    1hx3y2            2.702190      86.006333
                         32       1    1hx3yz            2.702190     148.967339
                         32       1    1hx3z2            2.702190      86.006333
                         32       1    1hx2y3            2.702190      86.006333
                         32       1    1hx2y2z           2.702190     192.316007
                         32       1    1hx2yz2           2.702190     192.316007
                         32       1    1hx2z3            2.702190      86.006333
                         32       1    1hxy4             2.702190      56.304362
                         32       1    1hxy3z            2.702190     148.967339
                         32       1    1hxy2z2           2.702190     192.316007
                         32       1    1hxyz3            2.702190     148.967339
                         32       1    1hxz4             2.702190      56.304362
                         32       1    1hy5              2.702190      18.768121
                         32       1    1hy4z             2.702190      56.304362
                         32       1    1hy3z2            2.702190      86.006333
                         32       1    1hy2z3            2.702190      86.006333
                         32       1    1hyz4             2.702190      56.304362
                         32       1    1hz5              2.702190      18.768121

                         33       1    1s                2.838270       1.558477

                         34       1    1dx2              3.000150      11.256663
                         34       1    1dxy              3.000150      19.497112
                         34       1    1dxz              3.000150      19.497112
                         34       1    1dy2              3.000150      11.256663
                         34       1    1dyz              3.000150      19.497112
                         34       1    1dz2              3.000150      11.256663

                         35       1    1fx3              3.116540      18.998444
                         35       1    1fx2y             3.116540      42.481813
                         35       1    1fx2z             3.116540      42.481813
                         35       1    1fxy2             3.116540      42.481813
                         35       1    1fxyz             3.116540      73.580658
                         35       1    1fxz2             3.116540      42.481813
                         35       1    1fy3              3.116540      18.998444
                         35       1    1fy2z             3.116540      42.481813
                         35       1    1fyz2             3.116540      42.481813
                         35       1    1fz3              3.116540      18.998444

                         36       1    1gx4              4.244100      59.271490
                         36       1    1gx3y             4.244100     156.817624
                         36       1    1gx3z             4.244100     156.817624
                         36       1    1gx2y2            4.244100     202.450681
                         36       1    1gx2yz            4.244100     350.654866
                         36       1    1gx2z2            4.244100     202.450681
                         36       1    1gxy3             4.244100     156.817624
                         36       1    1gxy2z            4.244100     350.654866
                         36       1    1gxyz2            4.244100     350.654866
                         36       1    1gxz3             4.244100     156.817624
                         36       1    1gy4              4.244100      59.271490
                         36       1    1gy3z             4.244100     156.817624
                         36       1    1gy2z2            4.244100     202.450681
                         36       1    1gyz3             4.244100     156.817624
                         36       1    1gz4              4.244100      59.271490

                         37       1    1dx2              4.999910      27.516506
                         37       1    1dxy              4.999910      47.659986
                         37       1    1dxz              4.999910      47.659986
                         37       1    1dy2              4.999910      27.516506
                         37       1    1dyz              4.999910      47.659986
                         37       1    1dz2              4.999910      27.516506

                         38       1    1px               5.053190      10.799338
                         38       1    1py               5.053190      10.799338
                         38       1    1pz               5.053190      10.799338

                         39       1    1s                6.151790       2.783949

                         40       1    1fx3              7.559750     139.507056
                         40       1    1fx2y             7.559750     311.947262
                         40       1    1fx2z             7.559750     311.947262
                         40       1    1fxy2             7.559750     311.947262
                         40       1    1fxyz             7.559750     540.308506
                         40       1    1fxz2             7.559750     311.947262
                         40       1    1fy3              7.559750     139.507056
                         40       1    1fy2z             7.559750     311.947262
                         40       1    1fyz2             7.559750     311.947262
                         40       1    1fz3              7.559750     139.507056

                         41       1    1dx2             12.844800     143.443975
                         41       1    1dxy             12.844800     248.452253
                         41       1    1dxz             12.844800     248.452253
                         41       1    1dy2             12.844800     143.443975
                         41       1    1dyz             12.844800     248.452253
                         41       1    1dz2             12.844800     143.443975

                         42       1    1s               13.932000       5.139492

                         43       1    1px              14.097200      38.936433
                         43       1    1py              14.097200      38.936433
                         43       1    1pz              14.097200      38.936433

                         44       1    1px              51.517500     196.735876
                         44       1    1py              51.517500     196.735876
                         44       1    1pz              51.517500     196.735876

                         45       1    1s               53.400400      14.078892

                         46       1    1s              247.064000      44.413724

       Atomic covalent radius [Angstrom]:                                  0.770

       Atomic van der Waals radius [Angstrom]:                             1.700

     The atoms of this atomic kind are PAW atoms (GAPW):
       Hard Gaussian function radius:                                      1.512
       Rho0 radius:                                                        1.512
       Maximum GTO radius used for PAW projector construction:            24.566

     GAPW Soft Basis Set                                  SVP-MOLOPT-GGA-ae_soft

       Number of orbital shell sets:                                           2
       Number of orbital shells:                                               6
       Number of primitive Cartesian functions:                                7
       Number of Cartesian basis functions:                                   15
       Number of spherical basis functions:                                   14
       Norm type:                                                              2

       Normalised Cartesian orbitals:

                        Set   Shell   Orbital            Exponent    Coefficient

                          1       1    2px               4.145546       1.425967
                                                         0.937529       0.673511
                                                         0.300899       0.144116
                                                         0.096935       0.005344
                          1       1    2py               4.145546       1.425967
                                                         0.937529       0.673511
                                                         0.300899       0.144116
                                                         0.096935       0.005344
                          1       1    2pz               4.145546       1.425967
                                                         0.937529       0.673511
                                                         0.300899       0.144116
                                                         0.096935       0.005344

                          1       2    3px               4.145546      -0.833488
                                                         0.937529      -0.414500
                                                         0.300899       0.082631
                                                         0.096935       0.066903
                          1       2    3py               4.145546      -0.833488
                                                         0.937529      -0.414500
                                                         0.300899       0.082631
                                                         0.096935       0.066903
                          1       2    3pz               4.145546      -0.833488
                                                         0.937529      -0.414500
                                                         0.300899       0.082631
                                                         0.096935       0.066903

                          1       3    3dx2              4.145546       0.718979
                                                         0.937529       0.830801
                                                         0.300899       0.105504
                                                         0.096935       0.001258
                          1       3    3dxy              4.145546       1.245309
                                                         0.937529       1.438990
                                                         0.300899       0.182739
                                                         0.096935       0.002179
                          1       3    3dxz              4.145546       1.245309
                                                         0.937529       1.438990
                                                         0.300899       0.182739
                                                         0.096935       0.002179
                          1       3    3dy2              4.145546       0.718979
                                                         0.937529       0.830801
                                                         0.300899       0.105504
                                                         0.096935       0.001258
                          1       3    3dyz              4.145546       1.245309
                                                         0.937529       1.438990
                                                         0.300899       0.182739
                                                         0.096935       0.002179
                          1       3    3dz2              4.145546       0.718979
                                                         0.937529       0.830801
                                                         0.300899       0.105504
                                                         0.096935       0.001258

                          2       1    1s                3.176528       0.666384
                                                         0.523772      -0.029268
                                                         0.161278       0.024253

                          2       2    2s                3.176528      -0.079506
                                                         0.523772       0.279468
                                                         0.161278       0.080328

                          2       3    3s                3.176528      -0.308205
                                                         0.523772      -0.382710
                                                         0.161278       0.225687

     AE Potential information for                                            ALL

       Description:                                       All-electron potential
                                          Krack, Parrinello, PCCP 2, 2105 (2000)

       Gaussian exponent of the core charge distribution:               4.109048
       Electronic configuration (s p d ...):                           4   2   0


 MOLECULE KIND INFORMATION


 All atoms are their own molecule, skipping detailed information


 TOTAL NUMBERS AND MAXIMUM NUMBERS

  Total number of            - Atomic kinds:                                   2
                             - Atoms:                                          4
                             - Shell sets:                                     6
                             - Shells:                                        18
                             - Primitive Cartesian functions:                 30
                             - Cartesian basis functions:                     40
                             - Spherical basis functions:                     38

[...]
 rebuild_ks_matrix                  244  6.0    0.001    0.001  229.977  229.987
 qs_ks_build_kohn_sham_matrix       244  7.0    0.034    0.038  229.976  229.986
 qs_energies_properties               1  3.0    0.000    0.000  211.553  211.553
 tddfpt                               1  4.0    0.000    0.000  211.553  211.553
 tddfpt_energies                      1  5.0    0.000    0.001  211.520  211.520
 tddfpt_davidson_solver               1  6.0    0.001    0.002  210.453  210.453
 tddfpt_compute_Aop_evects            7  7.0    0.000    0.000  209.128  209.128
 fhxc_kernel                          7  8.0    0.007    0.008  194.293  194.293
 fft_wrap_pw1pw2                   6237 10.6    0.124    0.159  186.403  190.551
 fft_wrap_pw1pw2_250               4413 11.8    7.659    9.007  179.417  183.896
 pw_poisson_solve                   384  8.7    5.292    6.464  180.483  180.807
 fft3d_ps                          6237 12.6   68.042   85.042  153.360  159.323
 ps_wavelet_solve                   384  9.7   86.318   99.601  110.897  112.440
 qs_rho_update_rho_low              386  6.5    0.004    0.005   94.458   94.461
 calculate_rho_elec                 386  7.5    1.877    2.227   94.193   94.198
 mp_alltoall_d54                    384 10.7   14.053   84.910   14.053   84.910
 xc_pw_derive                      1821 11.0    0.021    0.026   81.047   81.605
 tddfpt_apply_coulomb               140  9.0    0.003    0.004   79.384   79.662
 mp_alltoall_z22v                  6237 14.6   71.773   77.507   71.773   77.507
 density_rs2pw                      386  8.5    0.023    0.028   63.259   64.337
 qs_vxc_create                      244  8.0    0.003    0.003   53.611   53.611
 tddfpt_apply_xc_analytic           140  9.0    0.199    0.263   46.883   47.544
 yz_to_x                           2816 13.5    4.597    5.538   42.657   46.590
 x_to_yz                           2813 13.8    8.253    9.558   41.920   43.539
 xc_pw_divergence                   222 10.6    0.010    0.012   40.924   41.592
 transfer_rs2pw                    1930  9.6    0.054    0.081   38.013   38.513
 xc_rho_set_and_dset_create         245 10.0    0.592    0.737   34.262   37.651
 prepare_gapw_den                   385  8.4    0.005    0.006   33.267   33.689
 integrate_v_rspace                 222  9.0    0.005    0.006   32.050   32.230
 put_rho0_on_grid                   385  9.4    1.897    2.273   31.776   32.198
 transfer_pw2rs                    1273 10.6    0.020    0.026   31.224   31.938
 potential_pw2rs                    222 10.0    0.077    0.085   31.075   31.280
 mp_alltoall_d11v                 15038 11.9   19.950   29.545   19.950   29.545
 grid_collocate_task_list           386  8.5   27.557   28.897   27.557   28.897
 xc_vxc_pw_create                    82  9.0    0.532    0.647   28.137   28.137
 xc_calc_2nd_deriv_analytical       700 10.1    1.670    1.745   27.930   28.043
 mp_waitany                       59610 12.0   24.197   26.679   24.197   26.679
 xc_exc_calc                        162  9.0    0.786    0.933   25.471   25.472
 integrate_four_center              524  9.5   11.013   22.976   24.400   24.656
 transfer_rs2pw_250                 772 10.9    9.955   10.457   22.813   23.538
 mp_sync                           2920 11.4   12.081   22.922   12.081   22.922
 transfer_pw2rs_250                 607 11.2    7.593    8.201   20.610   21.307
 integrate_vhg0_rspace              384  8.7    0.085    0.121   18.537   18.697
 mp_alltoall_d45                    385 10.7    9.650   16.815    9.650   16.815
 tddfpt_apply_hfx                     7  8.0    0.003    0.003   14.257   14.257
 tddft_hfx_matrix                   280  9.0    0.007    0.008   12.680   12.753
 hfx_ks_matrix                      244  8.0    0.009    0.010   11.739   11.980
 sum_up_and_integrate                82  8.0    0.001    0.001   11.432   11.462
 pw_scatter_p                      3035 12.8   10.765   11.096   10.765   11.096
 mp_sum_d                          6957  9.9    7.746    9.746    7.746    9.746
 pw_gather_p                       3202 12.4    8.792    9.714    8.792    9.714
 pw_derive                         2973 11.5    8.793    9.460    8.793    9.460
 cp2k_distribution_to_z_slices      384  9.7    3.683    3.994    8.744    9.270
 transfer_rs2pw_30                  386 10.5    3.649    3.830    8.532    8.695
 fft_wrap_pw1pw2_90                 608 11.0    0.210    0.282    5.302    6.669
 transfer_pw2rs_30                  222 12.0    3.787    4.295    6.252    6.507
 pw_copy                           4675 10.7    5.929    6.335    5.929    6.335
 dbcsr_multiply_generic            4108  9.9    0.165    0.177    6.209    6.291
 mp_sendrecv_dv                   73340 11.5    6.020    6.248    6.020    6.248
 rs_grid_zero                      1599 11.3    5.835    6.144    5.835    6.144
 pw_poisson_set                     385  9.7    0.013    0.017    5.942    6.090
 mp_waitall_1                    544246 13.5    4.346    6.068    4.346    6.068
 qs_scf_new_mos                     244  5.0    0.001    0.001    5.958    5.969
 qs_scf_loop_do_ot                  244  6.0    0.001    0.001    5.957    5.968
 ot_scf_mini                        244  7.0    0.003    0.003    5.553    5.563
 transfer_rs2pw_90                  386 10.5    1.392    1.565    4.807    5.220
 pw_copy_to_array                  3202 12.4    3.316    4.107    3.316    4.107
 xc_functional_eval                1781 10.9    0.002    0.007    1.273    4.066
 pbe_lda_eval                      1781 11.9    1.271    4.065    1.271    4.065
 pw_integral_ab_c1d_c1d_gs          384  9.7    2.809    2.837    3.259    3.675
 cp_dbcsr_sm_fm_multiply            889  8.5    0.017    0.019    3.518    3.607
 transfer_pw2rs_90                  222 12.0    0.878    0.993    3.231    3.488
 multiply_cannon                   4108 10.9    0.369    0.379    3.236    3.415
 pw_axpy                           3178 10.0    2.960    3.223    2.960    3.223
 mp_isend_dv                     229206 13.5    1.666    2.819    1.666    2.819
 init_scf_loop                        1  4.0    0.000    0.000    2.738    2.738
 pw_copy_from_array                3035 12.8    2.129    2.680    2.129    2.680
 qs_ot_get_p                        245  8.0    0.001    0.002    2.580    2.585
 multiply_cannon_loop              4108 11.9    0.616    0.648    2.396    2.570
 dbcsr_complete_redistribute       3298 10.8    0.110    0.146    2.387    2.470
 pw_zero                           3128 10.5    2.210    2.429    2.210    2.429
 mp_isend_dm3                     11922 12.0    1.111    2.415    1.111    2.415
 mp_isendrecv_dv                 141740 12.0    1.155    2.235    1.155    2.235
 mp_sum_dm                         4654  8.9    1.700    2.196    1.700    2.196
 mp_irecv_dm3                     11922 12.0    1.061    2.176    1.061    2.176
 calculate_xc_2nd_deriv_atom        140  9.0    0.029    0.575    0.074    2.092
 qs_ot_p2m_diag                     244  9.0    0.005    0.007    1.959    1.971
 gaVxcgb_GC                         444  9.6    0.040    1.928    0.040    1.928
 transfer_rs2pw_10                  386 10.5    0.670    0.743    1.807    1.922
 make_m2s                          8216 10.9    0.133    0.143    1.800    1.868
 ot_mini                            244  8.0    0.001    0.001    1.849    1.863
 copy_dbcsr_to_fm                  1174  9.8    0.015    0.016    1.771    1.790
 qs_ot_get_derivative                82  9.0    0.001    0.001    1.697    1.699
 copy_fm_to_dbcsr                  2122  9.8    0.009    0.009    1.438    1.523
 calculate_vxc_atom                 244  8.0    0.076    0.527    1.510    1.511
 mp_max_i                           848  5.8    1.085    1.448    1.085    1.448
 calculate_rho_atom                 770  9.4    0.431    1.410    0.431    1.410
 make_images                       8216 11.9    0.321    0.330    1.308    1.338
 create_qs_kind_set                   1  2.0    0.000    0.000    1.325    1.325
 read_qs_kind                         2  3.0    0.729    0.743    1.324    1.325
 qs_ot_get_derivative_diag           81 10.0    0.002    0.002    1.306    1.308
 fft_wrap_pw1pw2_30                 608 11.0    0.038    0.044    1.124    1.274
 cp_dbcsr_sm_fm_multiply_core       889  9.5    0.002    0.002    1.216    1.257
 mp_sum_dv                        18401 10.5    1.216    1.252    1.216    1.252
 transfer_pw2rs_10                  222 12.0    0.406    0.441    1.111    1.216
 offload_free_buffer                392  9.6    1.006    1.194    1.006    1.194
 cp_dbcsr_syevd                     244 10.0    0.013    0.014    1.189    1.190
 scale_and_distribute               768 10.7    0.959    1.088    0.959    1.088
 mp_alltoall_i11v                 11312 11.8    1.003    1.005    1.003    1.005
 rs_gather_matrices                 222 10.0    0.002    0.007    0.878    0.992
 Vh_1c_gg_integrals                 384  8.7    0.025    0.235    0.739    0.938
 grid_integrate_task_list           222 10.0    0.090    0.907    0.090    0.907
 cp_fm_syevd                        293 10.4    0.002    0.002    0.885    0.888
 tddfpt_orthonormalize_psi1_psi       8  6.9    0.014    0.016    0.808    0.808
 pw_poisson_rebuild                 384  9.7    0.000    0.000    0.760    0.773
 ps_wavelet_create                    1 10.0    0.000    0.000    0.760    0.772
 RS_z_slice_distribution              1 11.0    0.677    0.710    0.760    0.772
 qs_ot_get_orbitals                 244  8.0    0.001    0.001    0.760    0.765
 dbcsr_desymmetrize_deep           1175 10.7    0.021    0.023    0.688    0.701
 cp_fm_redistribute_end             293 11.4    0.394    0.634    0.401    0.644
 cp_dbcsr_plus_fm_fm_t              141  9.0    0.002    0.002    0.618    0.625
 parser_read_line                154636  4.0    0.054    0.057    0.596    0.604
 prepare_dr1dr                      700 11.1    0.499    0.579    0.499    0.579
 tddfpt_apply_energy_diff             7  8.0    0.001    0.001    0.577    0.577
 multiply_cannon_metrocomm4       90376 12.9    0.267    0.282    0.516    0.569
 mp_sum_l                         18533 10.7    0.517    0.552    0.517    0.552
 parser_read_line_low               167  5.0    0.051    0.260    0.542    0.551
 multiply_cannon_metrocomm2       86268 12.9    0.256    0.269    0.471    0.522
 multiply_cannon_metrocomm3       98592 12.9    0.156    0.160    0.394    0.512
 make_images_sizes                 8216 12.9    0.009    0.009    0.480    0.505
 broadcast_input_information        167  6.0    0.124    0.138    0.491    0.503
 mp_alltoall_i44                   8216 13.9    0.471    0.497    0.471    0.497
 cp_fm_syevd_base                   293 11.4    0.239    0.481    0.239    0.481
 tddfpt_compute_residual_vects        6  7.0    0.001    0.001    0.470    0.471
 fft_wrap_pw1pw2_10                 608 11.0    0.010    0.010    0.436    0.461
 integrate_four_center_getP         524 10.5    0.076    0.080    0.433    0.456
 mp_alltoall_i22                   4554 11.8    0.354    0.448    0.354    0.448
 integrate_four_center_dist_KS      524 10.5    0.076    0.080    0.427    0.430
 integrate_four_center_main         524 10.5    0.070    0.223    0.095    0.425
 tddfpt_print_nto_analysis            1  6.0    0.002    0.003    0.419    0.420
 calculate_dm_sparse                245  7.0    0.001    0.001    0.406    0.410
 hybrid_alltoall_any               9391 13.6    0.072    0.077    0.383    0.407
 mp_rank_compare                   6237 13.6    0.375    0.398    0.375    0.398
 integrate_four_center_bin        46164 11.5    0.025    0.379    0.025    0.379
 dbcsr_make_images_dense           5776 11.9    0.087    0.092    0.259    0.360
 update_ks_atom                     384  8.4    0.021    0.041    0.198    0.358
 mp_bcast_dm                       3319  9.6    0.184    0.343    0.184    0.343
 multiply_cannon_metrocomm1       98592 12.9    0.108    0.112    0.258    0.337
 tddfpt_construct_ground_state_       1  6.0    0.000    0.000    0.329    0.330
 dbcsr_create_new                 84015 12.4    0.237    0.248    0.317    0.330
 init_scf_run                         1  3.0    0.000    0.000    0.319    0.319
 scf_env_initial_rho_setup            1  4.0    0.000    0.000    0.319    0.319
 calc_screening_functions             1 10.0    0.194    0.197    0.302    0.307
 dbcsr_finalize                    9987 11.4    0.048    0.063    0.230    0.294
 parallel_gemm_fm                  1185  8.4    0.001    0.002    0.276    0.288
 parallel_gemm_fm_gemm             1185  9.4    0.001    0.002    0.274    0.287
 cp_fm_gemm                        1185 10.4    0.273    0.285    0.273    0.285
 pw_scale                           608  9.5    0.227    0.278    0.227    0.278
 mp_alltoall_z11v                   608 14.0    0.250    0.275    0.250    0.275
 vxc_of_r_new                       976  9.0    0.000    0.021    0.005    0.264
 calculate_rho_atom_coeff           386  7.5    0.026    0.065    0.260    0.262
 xc_2nd_deriv_of_r                  560 10.0    0.001    0.046    0.005    0.261
 dbcsr_make_dense_low             16801 12.8    0.083    0.086    0.126    0.258
 mp_allgather_i34                  4108 11.9    0.232    0.256    0.232    0.256
 cp_fm_redistribute_start           293 11.4    0.193    0.201    0.243    0.246
 qs_init_subsys                       1  2.0    0.003    0.004    0.245    0.246
 qs_env_setup                         1  3.0    0.000    0.000    0.238    0.238
 qs_env_rebuild_pw_env                2  3.5    0.000    0.000    0.237    0.237
 pw_env_rebuild                       1  5.0    0.001    0.001    0.236    0.237
 make_images_data                  8216 12.9    0.079    0.104    0.172    0.236
 arnoldi_extremal                   245  9.0    0.004    0.005    0.231    0.236
 mp_bcast_i_src                     668  7.0    0.202    0.235    0.202    0.235
 arnoldi_normal_ev                  246 10.0    0.004    0.005    0.228    0.233
 pw_grid_setup                        4  6.0    0.000    0.000    0.228    0.229
 pw_grid_setup_internal               4  7.0    0.006    0.007    0.228    0.229
 mp_irecv_dv                     228111 13.5    0.167    0.222    0.167    0.222
 create_kernel_env                    1  6.0    0.000    0.000    0.200    0.219
 xc_prep_2nd_deriv                    1  7.0    0.000    0.000    0.200    0.219
 cp_fm_trace_a1b1t1_aa            10080  8.0    0.046    0.049    0.206    0.208
 mp_cart_sub                       2351 11.7    0.203    0.205    0.203    0.205
 dbcsr_special_finalize           20540 12.9    0.052    0.054    0.166    0.202
 powell_optimize                  76957 11.0    0.191    0.201    0.191    0.201
 multiply_cannon_multrec          98592 12.9    0.125    0.178    0.142    0.195
 mp_bcast_am_src                    167  7.0    0.152    0.171    0.162    0.193
 rs_grid_create                     390  9.7    0.002    0.003    0.029    0.178
 offload_create_buffer              392 10.7    0.027    0.176    0.027    0.176
 xz_to_yz                           386 12.5    0.014    0.016    0.156    0.166
 mp_cart_create                    1947 10.8    0.155    0.162    0.158    0.165
 dbcsr_merge_all                   8690 12.3    0.103    0.128    0.129    0.165
 cp_fm_geeig                         20  7.0    0.001    0.001    0.164    0.165
 mp_isend_iv                     193075 13.9    0.147    0.163    0.147    0.163
 pw_grid_sort                         4  8.0    0.107    0.109    0.156    0.158
 build_subspace                     246 11.0    0.008    0.009    0.153    0.156
 dbcsr_iterator_start             64885 12.4    0.065    0.121    0.080    0.148
 calc_pair_dist_radii                 1 10.0    0.053    0.062    0.135    0.145
 ot_new_cg_direction                 82  9.0    0.001    0.001    0.141    0.141
 yz_to_xz                           222 14.0    0.013    0.014    0.121    0.141
 dbcsr_destroy                    81854 11.5    0.100    0.103    0.133    0.138
 make_dense_data                  16801 13.8    0.007    0.055    0.008    0.132
 apply_preconditioner_dbcsr          83 10.0    0.000    0.000    0.125    0.129
 apply_single                        83 11.0    0.000    0.000    0.125    0.129
 dbcsr_matrix_vector_mult          1680 12.0    0.016    0.016    0.081    0.124
 dbcsr_data_new                  228989 13.0    0.091    0.114    0.091    0.114
 rs_scatter_matrices                386  8.5    0.003    0.006    0.109    0.112
 dbcsr_data_release              380432 13.2    0.095    0.109    0.095    0.109
 qs_energies_init_hamiltonians        1  3.0    0.000    0.000    0.105    0.105
 build_core_hamiltonian_matrix        1  4.0    0.000    0.000    0.098    0.098
 overlap_condnum                      1  5.0    0.000    0.000    0.096    0.097
 dbcsr_iterator_stop              64885 12.4    0.048    0.080    0.059    0.095
 setup_buffer_matrices             8216 11.9    0.030    0.032    0.091    0.093
 mp_irecv_iv                     193076 13.9    0.085    0.093    0.085    0.093
 dbcsr_work_create                30486 12.5    0.055    0.061    0.079    0.092
 dbcsr_make_dense                  2361 11.1    0.010    0.010    0.050    0.086
 mp_sum_b                          5777 10.9    0.082    0.086    0.082    0.086
 dbcsr_new_transposed              1829 10.8    0.010    0.011    0.082    0.085
 tddfpt_compute_ritz_vects            7  7.0    0.005    0.005    0.077    0.077
 dbcsr_work_destroy_all           30486 13.4    0.051    0.056    0.068    0.077
 dbcsr_add_d                       1121  9.1    0.002    0.002    0.010    0.075
 arnoldi_conjugate_gradient           5  6.0    0.002    0.003    0.074    0.074
 dbcsr_add_anytype                 1121 10.1    0.002    0.010    0.008    0.073
 scf_post_calculation_gpw             1  3.0    0.000    0.000    0.073    0.073
 write_available_results              1  4.0    0.000    0.000    0.073    0.073
 write_mo_free_results                1  5.0    0.006    0.008    0.072    0.073
 dbcsr_merge_single_wm             8735 13.6    0.042    0.048    0.049    0.072
 copy_fm_to_dbcsr_bc               2122 10.8    0.022    0.024    0.064    0.071
 dbcsr_sym_matrix_vector_mult       395  8.0    0.006    0.007    0.048    0.068
 dbcsr_make_undense                2361 11.1    0.015    0.029    0.030    0.064
 dbcsr_col_vec_to_rep_row          2075 12.2    0.015    0.016    0.035    0.064
 calculate_rho0_atom                770  9.4    0.062    0.063    0.062    0.063
 tddfpt_orthogonalize_psi1_psi0       8  6.9    0.000    0.000    0.048    0.061
 xc_pw_smooth                        82 10.0    0.000    0.000    0.043    0.061
 dbcsr_mm_multrec_init             4108 11.9    0.008    0.009    0.055    0.060
 quick_finalize                   13061 14.0    0.028    0.035    0.046    0.060
 dbcsr_copy                        7170 10.0    0.023    0.025    0.053    0.057
 dbcsr_redistribute                  81 12.0    0.002    0.002    0.051    0.052
 dbcsr_mm_csr_init                 4108 12.9    0.038    0.042    0.048    0.052
 sort_shells                          4  9.0    0.049    0.052    0.049    0.052
 -------------------------------------------------------------------------------

 The number of warnings for this run is : 2
 
 -------------------------------------------------------------------------------
  **** **** ******  **  PROGRAM ENDED AT                 2025-04-27 14:41:45.131
 ***** ** ***  *** **   PROGRAM RAN ON                              i05r11c02s12
 **    ****   ******    PROGRAM RAN BY                                   di38fab
 ***** **    ** ** **   PROGRAM PROCESS ID                               3425784
  **** **  *******  **  PROGRAM STOPPED IN /hppfs/scratch/04/di38fab/07_MOL_non_
                                           aug/05_MOL_non_aug/05_MOL/W4-11+ALK/c
                                           2h2/SZV/TDDFT
