SIRIUS 7.5.2, git hash: https://api.github.com/repos/electronic-structure/SIRIUS/git/ref/tags/v7.5.2
 DBCSR| CPU Multiplication driver                                           XSMM (U)
 DBCSR| Multrec recursion limit                                              512 (U)
 DBCSR| Multiplication stack size                                           1000 (D)
 DBCSR| Maximum elements for images                                    UNLIMITED (U)
 DBCSR| Multiplicative factor virtual images                                   1 (U)
 DBCSR| Use multiplication densification                                       T (D)
 DBCSR| Multiplication size stacks                                             3 (U)
 DBCSR| Use memory pool for CPU allocation                                     F (U)
 DBCSR| Number of 3D layers                                               SINGLE (U)
 DBCSR| Use MPI memory allocation                                              F (U)
 DBCSR| Use RMA algorithm                                                      F (U)
 DBCSR| Use Communication thread                                               T (U)
 DBCSR| Communication thread load                                             75 (D)
 DBCSR| MPI: My process id                                                     0
 DBCSR| MPI: Number of processes                                             192
 DBCSR| OMP: Current number of threads                                         4
 DBCSR| OMP: Max number of threads                                             4
 DBCSR| Split modifier for TAS multiplication algorithm                  1.0E+00 (U)


  **** **** ******  **  PROGRAM STARTED AT               2025-03-15 13:44:55.716
 ***** ** ***  *** **   PROGRAM STARTED ON                 n2cn0655.ab2021.local
 **    ****   ******    PROGRAM STARTED BY                              metdyn02
 ***** **    ** ** **   PROGRAM PROCESS ID                                854885
  **** **  *******  **  PROGRAM STARTED IN /scratch/hpc-prf-metdyn/metdyn02_Remi
                                           /10_MOL/05_MOL/aUKBqsEOTmq69kFe5R_nOg
                                           /5k_set_final_qzvp/GAQCAE/TZVP/GW+BSE
                                           /RILIM

 CP2K| version string:                 CP2K version 2025.1 (Development Version)
 CP2K| source code revision number:                                  git:f0c7327
 CP2K| cp2kflags: omp libint fftw3 libxc libgrpp elpa parallel scalapack mpi_f08
 CP2K|             cosma xsmm plumed2 spglib sirius libvori libbqb libvdwxc hdf5
 CP2K| is freely available from                            https://www.cp2k.org/
 CP2K| Program compiled at                          Wed Mar 12 18:25:30 CET 2025
 CP2K| Program compiled on                                              n2login1
 CP2K| Program compiled for                                                local
 CP2K| Data directory path    /opt/software/pc2/EB-SW/software/CP2K/2024.1-foss-
 CP2K| Input file name                                                    GW.inp

 GLOBAL| Force Environment number                                              1
 GLOBAL| Basis set file name            /scratch/hpc-prf-metdyn/metdyn02_Remi/BA
 GLOBAL| Potential file name            /pc2/groups/hpc-prf-metdyn/metdyn02_Remi
 GLOBAL| MM Potential file name                                     MM_POTENTIAL
 GLOBAL| Coordinate file name                                      __STD_INPUT__
 GLOBAL| Method name                                                        CP2K
 GLOBAL| Project name                                                       MoS2
 GLOBAL| Run type                                                         ENERGY
 GLOBAL| FFT library                                                       FFTW3
 GLOBAL| Diagonalization library                                            ELPA
 GLOBAL| DGEMM library                                                      BLAS
 GLOBAL| Minimum number of eigenvectors for ELPA usage                        16
 GLOBAL| Orthonormality check for eigenvectors                          DISABLED
 GLOBAL| Matrix multiplication library                                     COSMA
 GLOBAL| All-to-all communication in single precision                          F
 GLOBAL| FFTs using library dependent lengths                                  F
 GLOBAL| Grid backend                                                       AUTO
 GLOBAL| Global print level                                               MEDIUM
 GLOBAL| MPI I/O enabled                                                       T
 GLOBAL| Total number of message passing processes                           192
 GLOBAL| Number of threads for this process                                    4
 GLOBAL| This output is from process                                           0
 GLOBAL| OpenMP stack size per thread (OMP_STACKSIZE)                    default
 GLOBAL| CPU model name                          AMD EPYC 7763 64-Core Processor
 GLOBAL| CPUID                                                              1002

 MEMORY| system memory details [Kb]
 MEMORY|                        rank 0           min           max       average
 MEMORY| MemTotal            263899260     263899256     263899264     263899260
 MEMORY| MemFree             241213468     241213468     247202800     245232739
 MEMORY| Buffers                234168         32876        234168        139566
 MEMORY| Cached                8422536       5077684       8422536       6179968
 MEMORY| Slab                  2411844       1414012       2411844       1718196
 MEMORY| SReclaimable           473980        241392        473980        315728
 MEMORY| MemLikelyFree       250344152     250344152     252589124     251868002


 *** Fundamental physical constants (SI units) ***

 *** Literature: B. J. Mohr and B. N. Taylor,
 ***             CODATA recommended values of the fundamental physical
 ***             constants: 2006, Web Version 5.1
 ***             http://physics.nist.gov/constants

 Speed of light in vacuum [m/s]                             2.99792458000000E+08
 Magnetic constant or permeability of vacuum [N/A**2]       1.25663706143592E-06
 Electric constant or permittivity of vacuum [F/m]          8.85418781762039E-12
 Planck constant (h) [J*s]                                  6.62606896000000E-34
 Planck constant (h-bar) [J*s]                              1.05457162825177E-34
 Elementary charge [C]                                      1.60217648700000E-19
 Electron mass [kg]                                         9.10938215000000E-31
 Electron g factor [ ]                                     -2.00231930436220E+00
 Proton mass [kg]                                           1.67262163700000E-27
 Fine-structure constant                                    7.29735253760000E-03
 Rydberg constant [1/m]                                     1.09737315685270E+07
 Avogadro constant [1/mol]                                  6.02214179000000E+23
 Boltzmann constant [J/K]                                   1.38065040000000E-23
 Atomic mass unit [kg]                                      1.66053878200000E-27
 Bohr radius [m]                                            5.29177208590000E-11

 *** Conversion factors ***

 [u] -> [a.u.]                                              1.82288848426455E+03
 [Angstrom] -> [Bohr] = [a.u.]                              1.88972613288564E+00
 [a.u.] = [Bohr] -> [Angstrom]                              5.29177208590000E-01
 [a.u.] -> [s]                                              2.41888432650478E-17
 [a.u.] -> [fs]                                             2.41888432650478E-02
 [a.u.] -> [J]                                              4.35974393937059E-18
 [a.u.] -> [N]                                              8.23872205491840E-08
 [a.u.] -> [K]                                              3.15774647902944E+05
 [a.u.] -> [kJ/mol]                                         2.62549961709828E+03
 [a.u.] -> [kcal/mol]                                       6.27509468713739E+02
 [a.u.] -> [Pa]                                             2.94210107994716E+13
 [a.u.] -> [bar]                                            2.94210107994716E+08
 [a.u.] -> [atm]                                            2.90362800883016E+08
 [a.u.] -> [eV]                                             2.72113838565563E+01
 [a.u.] -> [Hz]                                             6.57968392072181E+15
 [a.u.] -> [1/cm] (wave numbers)                            2.19474631370540E+05
 [a.u./Bohr**2] -> [1/cm]                                   5.14048714338585E+03
 

 CELL_TOP| Volume [angstrom^3]:                                     27000.000000
 CELL_TOP| Vector a [angstrom    30.000     0.000     0.000   |a| =    30.000000
 CELL_TOP| Vector b [angstrom     0.000    30.000     0.000   |b| =    30.000000
 CELL_TOP| Vector c [angstrom     0.000     0.000    30.000   |c| =    30.000000
 CELL_TOP| Angle (b,c), alpha [degree]:                                90.000000
 CELL_TOP| Angle (a,c), beta  [degree]:                                90.000000
 CELL_TOP| Angle (a,b), gamma [degree]:                                90.000000
 CELL_TOP| Numerically orthorhombic:                                         YES
 CELL_TOP| Periodicity                                                      NONE

 GENERATE|  Preliminary Number of Bonds generated:                             0
 GENERATE|  Achieved consistency in connectivity generation.

 CELL| Volume [angstrom^3]:                                         27000.000000
 CELL| Vector a [angstrom]:      30.000     0.000     0.000   |a| =    30.000000
 CELL| Vector b [angstrom]:       0.000    30.000     0.000   |b| =    30.000000
 CELL| Vector c [angstrom]:       0.000     0.000    30.000   |c| =    30.000000
 CELL| Angle (b,c), alpha [degree]:                                    90.000000
 CELL| Angle (a,c), beta  [degree]:                                    90.000000
 CELL| Angle (a,b), gamma [degree]:                                    90.000000
 CELL| Numerically orthorhombic:                                             YES
 CELL| Periodicity                                                          NONE

 CELL_REF| Volume [angstrom^3]:                                     27000.000000
 CELL_REF| Vector a [angstrom    30.000     0.000     0.000   |a| =    30.000000
 CELL_REF| Vector b [angstrom     0.000    30.000     0.000   |b| =    30.000000
 CELL_REF| Vector c [angstrom     0.000     0.000    30.000   |c| =    30.000000
 CELL_REF| Angle (b,c), alpha [degree]:                                90.000000
 CELL_REF| Angle (a,c), beta  [degree]:                                90.000000
 CELL_REF| Angle (a,b), gamma [degree]:                                90.000000
 CELL_REF| Numerically orthorhombic:                                         YES
 CELL_REF| Periodicity                                                      NONE

 *******************************************************************************
 *******************************************************************************
 **                                                                           **
 **     #####                         ##              ##                      **
 **    ##   ##            ##          ##              ##                      **
 **   ##     ##                       ##            ######                    **
 **   ##     ##  ##   ##  ##   #####  ##  ##   ####   ##    #####    #####    **
 **   ##     ##  ##   ##  ##  ##      ## ##   ##      ##   ##   ##  ##   ##   **
 **   ##  ## ##  ##   ##  ##  ##      ####     ###    ##   ######   ######    **
 **    ##  ###   ##   ##  ##  ##      ## ##      ##   ##   ##       ##        **
 **     #######   #####   ##   #####  ##  ##  ####    ##    #####   ##        **
 **           ##                                                    ##        **
 **                                                                           **
 **                                                ... make the atoms dance   **
 **                                                                           **
 **            Copyright (C) by CP2K developers group (2000-2025)             **
 **                      J. Chem. Phys. 152, 194103 (2020)                    **
 **                                                                           **
 *******************************************************************************

 DFT| Spin restricted Kohn-Sham (RKS) calculation                            RKS
 DFT| Multiplicity                                                             1
 DFT| Number of spin states                                                    1
 DFT| Charge                                                                   0
 DFT| Self-interaction correction (SIC)                                       NO
 DFT| Cutoffs: density                                              1.000000E-10
 DFT|          gradient                                             1.000000E-10
 DFT|          tau                                                  1.000000E-10
 DFT|          cutoff_smoothing_range                               0.000000E+00
 DFT| XC density smoothing                                                  NONE
 DFT| XC derivatives                                                          PW

 FUNCTIONAL| PBE:
 FUNCTIONAL| J.P.Perdew, K.Burke, M.Ernzerhof, Phys. Rev. Letter, vol. 77, n 18,
 FUNCTIONAL|  pp. 3865-3868, (1996)sx=0.750sc=1.000{spin unpolarized}           


 QS| Method:                                                                GAPW
 QS| Density plane wave grid type                        NON-SPHERICAL FULLSPACE
 QS| Number of grid levels:                                                    4
 QS| Density cutoff [a.u.]:                                                250.0
 QS| Multi grid cutoff [a.u.]: 1) grid level                               250.0
 QS|                           2) grid level                                83.3
 QS|                           3) grid level                                27.8
 QS|                           4) grid level                                 9.3
 QS| Grid level progression factor:                                          3.0
 QS| Relative density cutoff [a.u.]:                                        50.0
 QS| Interaction thresholds: eps_pgf_orb:                                1.0E-12
 QS|                         eps_filter_matrix:                          0.0E+00
 QS|                         eps_core_charge:                            1.0E-14
 QS|                         eps_rho_gspace:                             1.0E-12
 QS|                         eps_rho_rspace:                             1.0E-12
 QS|                         eps_gvg_rspace:                             1.0E-06
 QS|                         eps_ppl:                                    1.0E-02
 QS|                         eps_ppnl:                                   1.0E-08
 QS| GAPW|      One center basis from orbital basis primitives
 QS| GAPW|                   eps_fit:                                    1.0E-04
 QS| GAPW|                   eps_iso:                                    1.0E-12
 QS| GAPW|                   eps_svd:                                    1.0E-08
 QS| GAPW|                   eps_cpc:                                    1.0E-12
 QS| GAPW|   atom-r-grid: quadrature:                                     GC_LOG
 QS| GAPW|      atom-s-grid:  max l :                                          8
 QS| GAPW|      max_l_rho0 :                                                   2


 ATOMIC KIND INFORMATION

  1. Atomic kind: H                                     Number of atoms:       6

     Orbital Basis Set                                        aug-TZVP-MOLOPT-ae

       Number of orbital shell sets:                                           1
       Number of orbital shells:                                               9
       Number of primitive Cartesian functions:                                6
       Number of Cartesian basis functions:                                   25
       Number of spherical basis functions:                                   23
       Norm type:                                                              2

       Normalised Cartesian orbitals:

                        Set   Shell   Orbital            Exponent    Coefficient

                          1       1    1s                0.030000       0.000000
                                                         0.091371      -0.049397
                                                         0.293823      -0.051765
                                                         1.065127       0.831136
                                                         4.947701      -0.270539
                                                        34.177738      -6.423540

                          1       2    2s                0.030000       0.000000
                                                         0.091371      -0.041080
                                                         0.293823       0.227881
                                                         1.065127       0.154529
                                                         4.947701       0.528758
                                                        34.177738       3.211471

                          1       3    3s                0.030000       0.000000
                                                         0.091371       0.076395
                                                         0.293823       0.077306
                                                         1.065127       0.164523
                                                         4.947701      -0.040048
                                                        34.177738      -1.131577

                          1       4    4s                0.030000       0.043550
                                                         0.091371      -0.026138
                                                         0.293823      -0.246542
                                                         1.065127      -0.077212
                                                         4.947701       0.000000
                                                        34.177738       0.000000

                          1       5    2px               0.030000       0.000000
                                                         0.091371       0.008886
                                                         0.293823      -0.007684
                                                         1.065127       1.416453
                                                         4.947701       1.341091
                                                        34.177738     -11.084238
                          1       5    2py               0.030000       0.000000
                                                         0.091371       0.008886
                                                         0.293823      -0.007684
                                                         1.065127       1.416453
                                                         4.947701       1.341091
                                                        34.177738     -11.084238
                          1       5    2pz               0.030000       0.000000
                                                         0.091371       0.008886
                                                         0.293823      -0.007684
                                                         1.065127       1.416453
                                                         4.947701       1.341091
                                                        34.177738     -11.084238

                          1       6    3px               0.030000       0.000000
                                                         0.091371      -0.013062
                                                         0.293823       0.330130
                                                         1.065127       0.106963
                                                         4.947701      -0.549928
                                                        34.177738       9.643751
                          1       6    3py               0.030000       0.000000
                                                         0.091371      -0.013062
                                                         0.293823       0.330130
                                                         1.065127       0.106963
                                                         4.947701      -0.549928
                                                        34.177738       9.643751
                          1       6    3pz               0.030000       0.000000
                                                         0.091371      -0.013062
                                                         0.293823       0.330130
                                                         1.065127       0.106963
                                                         4.947701      -0.549928
                                                        34.177738       9.643751

                          1       7    4px               0.030000       0.014060
                                                         0.091371       0.022273
                                                         0.293823      -0.026384
                                                         1.065127       0.024249
                                                         4.947701       0.000000
                                                        34.177738       0.000000
                          1       7    4py               0.030000       0.014060
                                                         0.091371       0.022273
                                                         0.293823      -0.026384
                                                         1.065127       0.024249
                                                         4.947701       0.000000
                                                        34.177738       0.000000
                          1       7    4pz               0.030000       0.014060
                                                         0.091371       0.022273
                                                         0.293823      -0.026384
                                                         1.065127       0.024249
                                                         4.947701       0.000000
                                                        34.177738       0.000000

                          1       8    3dx2              0.030000       0.000000
                                                         0.091371      -0.004737
                                                         0.293823       0.052231
                                                         1.065127       1.617163
                                                         4.947701      -1.124420
                                                        34.177738       9.702470
                          1       8    3dxy              0.030000       0.000000
                                                         0.091371      -0.008204
                                                         0.293823       0.090468
                                                         1.065127       2.801009
                                                         4.947701      -1.947552
                                                        34.177738      16.805171
                          1       8    3dxz              0.030000       0.000000
                                                         0.091371      -0.008204
                                                         0.293823       0.090468
                                                         1.065127       2.801009
                                                         4.947701      -1.947552
                                                        34.177738      16.805171
                          1       8    3dy2              0.030000       0.000000
                                                         0.091371      -0.004737
                                                         0.293823       0.052231
                                                         1.065127       1.617163
                                                         4.947701      -1.124420
                                                        34.177738       9.702470
                          1       8    3dyz              0.030000       0.000000
                                                         0.091371      -0.008204
                                                         0.293823       0.090468
                                                         1.065127       2.801009
                                                         4.947701      -1.947552
                                                        34.177738      16.805171
                          1       8    3dz2              0.030000       0.000000
                                                         0.091371      -0.004737
                                                         0.293823       0.052231
                                                         1.065127       1.617163
                                                         4.947701      -1.124420
                                                        34.177738       9.702470

                          1       9    4dx2              0.030000       0.002444
                                                         0.091371       0.004703
                                                         0.293823       0.069647
                                                         1.065127       0.196246
                                                         4.947701       0.000000
                                                        34.177738       0.000000
                          1       9    4dxy              0.030000       0.004233
                                                         0.091371       0.008146
                                                         0.293823       0.120632
                                                         1.065127       0.339908
                                                         4.947701       0.000000
                                                        34.177738       0.000000
                          1       9    4dxz              0.030000       0.004233
                                                         0.091371       0.008146
                                                         0.293823       0.120632
                                                         1.065127       0.339908
                                                         4.947701       0.000000
                                                        34.177738       0.000000
                          1       9    4dy2              0.030000       0.002444
                                                         0.091371       0.004703
                                                         0.293823       0.069647
                                                         1.065127       0.196246
                                                         4.947701       0.000000
                                                        34.177738       0.000000
                          1       9    4dyz              0.030000       0.004233
                                                         0.091371       0.008146
                                                         0.293823       0.120632
                                                         1.065127       0.339908
                                                         4.947701       0.000000
                                                        34.177738       0.000000
                          1       9    4dz2              0.030000       0.002444
                                                         0.091371       0.004703
                                                         0.293823       0.069647
                                                         1.065127       0.196246
                                                         4.947701       0.000000
                                                        34.177738       0.000000

     RI Auxiliary Basis Set             RI_aug-TZVP-MOLOPT-ae_N_RI_031_s_p_d_f_g

       Number of orbital shell sets:                                          13
       Number of orbital shells:                                              13
       Number of primitive Cartesian functions:                               13
       Number of Cartesian basis functions:                                   33
       Number of spherical basis functions:                                   31
       Norm type:                                                              2

       Normalised Cartesian orbitals:

                        Set   Shell   Orbital            Exponent    Coefficient

                          1       1    1s                0.224932       0.232781

                          2       1    7px               0.279478       0.289650
                          2       1    7py               0.279478       0.289650
                          2       1    7pz               0.279478       0.289650

                          3       1   12dx2              0.469344       0.438046
                          3       1   12dxy              0.469344       0.758718
                          3       1   12dxz              0.469344       0.758718
                          3       1   12dy2              0.469344       0.438046
                          3       1   12dyz              0.469344       0.758718
                          3       1   12dz2              0.469344       0.438046

                          4       1    2s                0.497908       0.422447

                          5       1    8px               0.531011       0.646130
                          5       1    8py               0.531011       0.646130
                          5       1    8pz               0.531011       0.646130

                          6       1    3s                0.987287       0.705899

                          7       1   13dx2              1.473035       3.241772
                          7       1   13dxy              1.473035       5.614913
                          7       1   13dxz              1.473035       5.614913
                          7       1   13dy2              1.473035       3.241772
                          7       1   13dyz              1.473035       5.614913
                          7       1   13dz2              1.473035       3.241772

                          8       1    9px               1.518539       2.402827
                          8       1    9py               1.518539       2.402827
                          8       1    9pz               1.518539       2.402827

                          9       1    4s                1.784647       1.100460

                         10       1    5s                5.118749       2.425398

                         11       1   10px               6.826343      15.728062
                         11       1   10py               6.826343      15.728062
                         11       1   10pz               6.826343      15.728062

                         12       1   11px              18.266250      53.827205
                         12       1   11py              18.266250      53.827205
                         12       1   11pz              18.266250      53.827205

                         13       1    6s               26.803960       8.395746

       Atomic covalent radius [Angstrom]:                                  0.320

       Atomic van der Waals radius [Angstrom]:                             1.090

     The atoms of this atomic kind are PAW atoms (GAPW):
       Hard Gaussian function radius:                                      1.200
       Rho0 radius:                                                        1.200
       Maximum GTO radius used for PAW projector construction:            24.566

     GAPW Soft Basis Set                                 aug-TZVP-MOLOPT-ae_soft

       Number of orbital shell sets:                                           1
       Number of orbital shells:                                               9
       Number of primitive Cartesian functions:                                5
       Number of Cartesian basis functions:                                   25
       Number of spherical basis functions:                                   23
       Norm type:                                                              2

       Normalised Cartesian orbitals:

                        Set   Shell   Orbital            Exponent    Coefficient

                          1       1    1s                0.030000       0.000000
                                                         0.091371      -0.049397
                                                         0.293823      -0.051765
                                                         1.065127       0.831136
                                                         4.947701      -0.270539

                          1       2    2s                0.030000       0.000000
                                                         0.091371      -0.041080
                                                         0.293823       0.227881
                                                         1.065127       0.154529
                                                         4.947701       0.528758

                          1       3    3s                0.030000       0.000000
                                                         0.091371       0.076395
                                                         0.293823       0.077306
                                                         1.065127       0.164523
                                                         4.947701      -0.040048

                          1       4    4s                0.030000       0.043550
                                                         0.091371      -0.026138
                                                         0.293823      -0.246542
                                                         1.065127      -0.077212
                                                         4.947701       0.000000

                          1       5    2px               0.030000       0.000000
                                                         0.091371       0.008886
                                                         0.293823      -0.007684
                                                         1.065127       1.416453
                                                         4.947701       1.341091
                          1       5    2py               0.030000       0.000000
                                                         0.091371       0.008886
                                                         0.293823      -0.007684
                                                         1.065127       1.416453
                                                         4.947701       1.341091
                          1       5    2pz               0.030000       0.000000
                                                         0.091371       0.008886
                                                         0.293823      -0.007684
                                                         1.065127       1.416453
                                                         4.947701       1.341091

                          1       6    3px               0.030000       0.000000
                                                         0.091371      -0.013062
                                                         0.293823       0.330130
                                                         1.065127       0.106963
                                                         4.947701      -0.549928
                          1       6    3py               0.030000       0.000000
                                                         0.091371      -0.013062
                                                         0.293823       0.330130
                                                         1.065127       0.106963
                                                         4.947701      -0.549928
                          1       6    3pz               0.030000       0.000000
                                                         0.091371      -0.013062
                                                         0.293823       0.330130
                                                         1.065127       0.106963
                                                         4.947701      -0.549928

                          1       7    4px               0.030000       0.014060
                                                         0.091371       0.022273
                                                         0.293823      -0.026384
                                                         1.065127       0.024249
                                                         4.947701       0.000000
                          1       7    4py               0.030000       0.014060
                                                         0.091371       0.022273
                                                         0.293823      -0.026384
                                                         1.065127       0.024249
                                                         4.947701       0.000000
                          1       7    4pz               0.030000       0.014060
                                                         0.091371       0.022273
                                                         0.293823      -0.026384
                                                         1.065127       0.024249
                                                         4.947701       0.000000

                          1       8    3dx2              0.030000       0.000000
                                                         0.091371      -0.004737
                                                         0.293823       0.052231
                                                         1.065127       1.617163
                                                         4.947701      -1.124420
                          1       8    3dxy              0.030000       0.000000
                                                         0.091371      -0.008204
                                                         0.293823       0.090468
                                                         1.065127       2.801009
                                                         4.947701      -1.947552
                          1       8    3dxz              0.030000       0.000000
                                                         0.091371      -0.008204
                                                         0.293823       0.090468
                                                         1.065127       2.801009
                                                         4.947701      -1.947552
                          1       8    3dy2              0.030000       0.000000
                                                         0.091371      -0.004737
                                                         0.293823       0.052231
                                                         1.065127       1.617163
                                                         4.947701      -1.124420
                          1       8    3dyz              0.030000       0.000000
                                                         0.091371      -0.008204
                                                         0.293823       0.090468
                                                         1.065127       2.801009
                                                         4.947701      -1.947552
                          1       8    3dz2              0.030000       0.000000
                                                         0.091371      -0.004737
                                                         0.293823       0.052231
                                                         1.065127       1.617163
                                                         4.947701      -1.124420

                          1       9    4dx2              0.030000       0.002444
                                                         0.091371       0.004703
                                                         0.293823       0.069647
                                                         1.065127       0.196246
                                                         4.947701       0.000000
                          1       9    4dxy              0.030000       0.004233
                                                         0.091371       0.008146
                                                         0.293823       0.120632
                                                         1.065127       0.339908
                                                         4.947701       0.000000
                          1       9    4dxz              0.030000       0.004233
                                                         0.091371       0.008146
                                                         0.293823       0.120632
                                                         1.065127       0.339908
                                                         4.947701       0.000000
                          1       9    4dy2              0.030000       0.002444
                                                         0.091371       0.004703
                                                         0.293823       0.069647
                                                         1.065127       0.196246
                                                         4.947701       0.000000
                          1       9    4dyz              0.030000       0.004233
                                                         0.091371       0.008146
                                                         0.293823       0.120632
                                                         1.065127       0.339908
                                                         4.947701       0.000000
                          1       9    4dz2              0.030000       0.002444
                                                         0.091371       0.004703
                                                         0.293823       0.069647
                                                         1.065127       0.196246
                                                         4.947701       0.000000

     AE Potential information for                                            ALL

       Description:                                       All-electron potential
                                          Krack, Parrinello, PCCP 2, 2105 (2000)

       Gaussian exponent of the core charge distribution:              12.500000
       Electronic configuration (s p d ...):                           1   0   0

  2. Atomic kind: C                                     Number of atoms:       7

     Orbital Basis Set                                        aug-TZVP-MOLOPT-ae

       Number of orbital shell sets:                                           2
       Number of orbital shells:                                              16
       Number of primitive Cartesian functions:                               13
       Number of Cartesian basis functions:                                   71
       Number of spherical basis functions:                                   56
       Norm type:                                                              2

       Normalised Cartesian orbitals:

                        Set   Shell   Orbital            Exponent    Coefficient

                          1       1    1s                0.040000       0.000000
                                                         0.097098       0.019281
                                                         0.283960       0.027513
                                                         0.806764       0.003692
                                                         2.441624       0.446183
                                                         6.739673       1.752510
                                                        34.417212       0.637474

                          1       2    2s                0.040000       0.000000
                                                         0.097098       0.029117
                                                         0.283960       0.094997
                                                         0.806764       0.362633
                                                         2.441624      -0.104551
                                                         6.739673      -0.288836
                                                        34.417212       1.102934

                          1       3    3s                0.040000       0.000000
                                                         0.097098       0.047046
                                                         0.283960       0.169545
                                                         0.806764      -0.252838
                                                         2.441624      -0.199197
                                                         6.739673      -0.168746
                                                        34.417212      -6.120053

                          1       4    4s                0.040000       0.000000
                                                         0.097098       0.188374
                                                         0.283960      -0.341415
                                                         0.806764       0.091223
                                                         2.441624      -0.053941
                                                         6.739673      -0.401007
                                                        34.417212      -3.786931

                          1       5    5s                0.040000       0.099533
                                                         0.097098      -0.167672
                                                         0.283960      -0.126383
                                                         0.806764       0.030074
                                                         2.441624       0.000000
                                                         6.739673       0.000000
                                                        34.417212       0.000000

                          1       6    2px               0.040000       0.000000
                                                         0.097098       0.005087
                                                         0.283960       0.032186
                                                         0.806764       0.779023
                                                         2.441624       0.695625
                                                         6.739673       2.243109
                                                        34.417212       2.016536
                          1       6    2py               0.040000       0.000000
                                                         0.097098       0.005087
                                                         0.283960       0.032186
                                                         0.806764       0.779023
                                                         2.441624       0.695625
                                                         6.739673       2.243109
                                                        34.417212       2.016536
                          1       6    2pz               0.040000       0.000000
                                                         0.097098       0.005087
                                                         0.283960       0.032186
                                                         0.806764       0.779023
                                                         2.441624       0.695625
                                                         6.739673       2.243109
                                                        34.417212       2.016536

                          1       7    3px               0.040000       0.000000
                                                         0.097098       0.008084
                                                         0.283960       0.294367
                                                         0.806764      -0.188640
                                                         2.441624       0.912249
                                                         6.739673      -2.720242
                                                        34.417212       1.690366
                          1       7    3py               0.040000       0.000000
                                                         0.097098       0.008084
                                                         0.283960       0.294367
                                                         0.806764      -0.188640
                                                         2.441624       0.912249
                                                         6.739673      -2.720242
                                                        34.417212       1.690366
                          1       7    3pz               0.040000       0.000000
                                                         0.097098       0.008084
                                                         0.283960       0.294367
                                                         0.806764      -0.188640
                                                         2.441624       0.912249
                                                         6.739673      -2.720242
                                                        34.417212       1.690366

                          1       8    4px               0.040000       0.000000
                                                         0.097098       0.081068
                                                         0.283960      -0.017243
                                                         0.806764      -0.070055
                                                         2.441624      -0.855991
                                                         6.739673       1.761645
                                                        34.417212     -12.705833
                          1       8    4py               0.040000       0.000000
                                                         0.097098       0.081068
                                                         0.283960      -0.017243
                                                         0.806764      -0.070055
                                                         2.441624      -0.855991
                                                         6.739673       1.761645
                                                        34.417212     -12.705833
                          1       8    4pz               0.040000       0.000000
                                                         0.097098       0.081068
                                                         0.283960      -0.017243
                                                         0.806764      -0.070055
                                                         2.441624      -0.855991
                                                         6.739673       1.761645
                                                        34.417212     -12.705833

                          1       9    5px               0.040000       0.032085
                                                         0.097098      -0.027366
                                                         0.283960      -0.100343
                                                         0.806764      -0.020266
                                                         2.441624       0.000000
                                                         6.739673       0.000000
                                                        34.417212       0.000000
                          1       9    5py               0.040000       0.032085
                                                         0.097098      -0.027366
                                                         0.283960      -0.100343
                                                         0.806764      -0.020266
                                                         2.441624       0.000000
                                                         6.739673       0.000000
                                                        34.417212       0.000000
                          1       9    5pz               0.040000       0.032085
                                                         0.097098      -0.027366
                                                         0.283960      -0.100343
                                                         0.806764      -0.020266
                                                         2.441624       0.000000
                                                         6.739673       0.000000
                                                        34.417212       0.000000

                          1      10    3dx2              0.040000       0.000000
                                                         0.097098       0.001415
                                                         0.283960       0.015501
                                                         0.806764       0.546922
                                                         2.441624       3.763414
                                                         6.739673       4.248634
                                                        34.417212     174.894573
                          1      10    3dxy              0.040000       0.000000
                                                         0.097098       0.002451
                                                         0.283960       0.026849
                                                         0.806764       0.947296
                                                         2.441624       6.518424
                                                         6.739673       7.358850
                                                        34.417212     302.926287
                          1      10    3dxz              0.040000       0.000000
                                                         0.097098       0.002451
                                                         0.283960       0.026849
                                                         0.806764       0.947296
                                                         2.441624       6.518424
                                                         6.739673       7.358850
                                                        34.417212     302.926287
                          1      10    3dy2              0.040000       0.000000
                                                         0.097098       0.001415
                                                         0.283960       0.015501
                                                         0.806764       0.546922
                                                         2.441624       3.763414
                                                         6.739673       4.248634
                                                        34.417212     174.894573
                          1      10    3dyz              0.040000       0.000000
                                                         0.097098       0.002451
                                                         0.283960       0.026849
                                                         0.806764       0.947296
                                                         2.441624       6.518424
                                                         6.739673       7.358850
                                                        34.417212     302.926287
                          1      10    3dz2              0.040000       0.000000
                                                         0.097098       0.001415
                                                         0.283960       0.015501
                                                         0.806764       0.546922
                                                         2.441624       3.763414
                                                         6.739673       4.248634
                                                        34.417212     174.894573

                          1      11    4dx2              0.040000       0.000000
                                                         0.097098       0.001225
                                                         0.283960       0.139703
                                                         0.806764       0.323683
                                                         2.441624      -2.510108
                                                         6.739673      -4.401044
                                                        34.417212    -164.169372
                          1      11    4dxy              0.040000       0.000000
                                                         0.097098       0.002122
                                                         0.283960       0.241972
                                                         0.806764       0.560636
                                                         2.441624      -4.347634
                                                         6.739673      -7.622831
                                                        34.417212    -284.349694
                          1      11    4dxz              0.040000       0.000000
                                                         0.097098       0.002122
                                                         0.283960       0.241972
                                                         0.806764       0.560636
                                                         2.441624      -4.347634
                                                         6.739673      -7.622831
                                                        34.417212    -284.349694
                          1      11    4dy2              0.040000       0.000000
                                                         0.097098       0.001225
                                                         0.283960       0.139703
                                                         0.806764       0.323683
                                                         2.441624      -2.510108
                                                         6.739673      -4.401044
                                                        34.417212    -164.169372
                          1      11    4dyz              0.040000       0.000000
                                                         0.097098       0.002122
                                                         0.283960       0.241972
                                                         0.806764       0.560636
                                                         2.441624      -4.347634
                                                         6.739673      -7.622831
                                                        34.417212    -284.349694
                          1      11    4dz2              0.040000       0.000000
                                                         0.097098       0.001225
                                                         0.283960       0.139703
                                                         0.806764       0.323683
                                                         2.441624      -2.510108
                                                         6.739673      -4.401044
                                                        34.417212    -164.169372

                          1      12    5dx2              0.040000       0.006049
                                                         0.097098      -0.003128
                                                         0.283960       0.033814
                                                         0.806764       0.003338
                                                         2.441624       0.000000
                                                         6.739673       0.000000
                                                        34.417212       0.000000
                          1      12    5dxy              0.040000       0.010477
                                                         0.097098      -0.005418
                                                         0.283960       0.058567
                                                         0.806764       0.005781
                                                         2.441624       0.000000
                                                         6.739673       0.000000
                                                        34.417212       0.000000
                          1      12    5dxz              0.040000       0.010477
                                                         0.097098      -0.005418
                                                         0.283960       0.058567
                                                         0.806764       0.005781
                                                         2.441624       0.000000
                                                         6.739673       0.000000
                                                        34.417212       0.000000
                          1      12    5dy2              0.040000       0.006049
                                                         0.097098      -0.003128
                                                         0.283960       0.033814
                                                         0.806764       0.003338
                                                         2.441624       0.000000
                                                         6.739673       0.000000
                                                        34.417212       0.000000
                          1      12    5dyz              0.040000       0.010477
                                                         0.097098      -0.005418
                                                         0.283960       0.058567
                                                         0.806764       0.005781
                                                         2.441624       0.000000
                                                         6.739673       0.000000
                                                        34.417212       0.000000
                          1      12    5dz2              0.040000       0.006049
                                                         0.097098      -0.003128
                                                         0.283960       0.033814
                                                         0.806764       0.003338
                                                         2.441624       0.000000
                                                         6.739673       0.000000
                                                        34.417212       0.000000

                          1      13    4fx3              0.040000       0.000000
                                                         0.097098      -0.000799
                                                         0.283960       0.042127
                                                         0.806764       0.576468
                                                         2.441624       1.033755
                                                         6.739673      -2.026957
                                                        34.417212      49.427593
                          1      13    4fx2y             0.040000       0.000000
                                                         0.097098      -0.001786
                                                         0.283960       0.094199
                                                         0.806764       1.289022
                                                         2.441624       2.311546
                                                         6.739673      -4.532415
                                                        34.417212     110.523457
                          1      13    4fx2z             0.040000       0.000000
                                                         0.097098      -0.001786
                                                         0.283960       0.094199
                                                         0.806764       1.289022
                                                         2.441624       2.311546
                                                         6.739673      -4.532415
                                                        34.417212     110.523457
                          1      13    4fxy2             0.040000       0.000000
                                                         0.097098      -0.001786
                                                         0.283960       0.094199
                                                         0.806764       1.289022
                                                         2.441624       2.311546
                                                         6.739673      -4.532415
                                                        34.417212     110.523457
                          1      13    4fxyz             0.040000       0.000000
                                                         0.097098      -0.003093
                                                         0.283960       0.163158
                                                         0.806764       2.232651
                                                         2.441624       4.003716
                                                         6.739673      -7.850372
                                                        34.417212     191.432243
                          1      13    4fxz2             0.040000       0.000000
                                                         0.097098      -0.001786
                                                         0.283960       0.094199
                                                         0.806764       1.289022
                                                         2.441624       2.311546
                                                         6.739673      -4.532415
                                                        34.417212     110.523457
                          1      13    4fy3              0.040000       0.000000
                                                         0.097098      -0.000799
                                                         0.283960       0.042127
                                                         0.806764       0.576468
                                                         2.441624       1.033755
                                                         6.739673      -2.026957
                                                        34.417212      49.427593
                          1      13    4fy2z             0.040000       0.000000
                                                         0.097098      -0.001786
                                                         0.283960       0.094199
                                                         0.806764       1.289022
                                                         2.441624       2.311546
                                                         6.739673      -4.532415
                                                        34.417212     110.523457
                          1      13    4fyz2             0.040000       0.000000
                                                         0.097098      -0.001786
                                                         0.283960       0.094199
                                                         0.806764       1.289022
                                                         2.441624       2.311546
                                                         6.739673      -4.532415
                                                        34.417212     110.523457
                          1      13    4fz3              0.040000       0.000000
                                                         0.097098      -0.000799
                                                         0.283960       0.042127
                                                         0.806764       0.576468
                                                         2.441624       1.033755
                                                         6.739673      -2.026957
                                                        34.417212      49.427593

                          1      14    5fx3              0.040000       0.000092
                                                         0.097098       0.001511
                                                         0.283960      -0.094589
                                                         0.806764       0.000869
                                                         2.441624       0.000000
                                                         6.739673       0.000000
                                                        34.417212       0.000000
                          1      14    5fx2y             0.040000       0.000206
                                                         0.097098       0.003380
                                                         0.283960      -0.211507
                                                         0.806764       0.001943
                                                         2.441624       0.000000
                                                         6.739673       0.000000
                                                        34.417212       0.000000
                          1      14    5fx2z             0.040000       0.000206
                                                         0.097098       0.003380
                                                         0.283960      -0.211507
                                                         0.806764       0.001943
                                                         2.441624       0.000000
                                                         6.739673       0.000000
                                                        34.417212       0.000000
                          1      14    5fxy2             0.040000       0.000206
                                                         0.097098       0.003380
                                                         0.283960      -0.211507
                                                         0.806764       0.001943
                                                         2.441624       0.000000
                                                         6.739673       0.000000
                                                        34.417212       0.000000
                          1      14    5fxyz             0.040000       0.000357
                                                         0.097098       0.005854
                                                         0.283960      -0.366341
                                                         0.806764       0.003365
                                                         2.441624       0.000000
                                                         6.739673       0.000000
                                                        34.417212       0.000000
                          1      14    5fxz2             0.040000       0.000206
                                                         0.097098       0.003380
                                                         0.283960      -0.211507
                                                         0.806764       0.001943
                                                         2.441624       0.000000
                                                         6.739673       0.000000
                                                        34.417212       0.000000
                          1      14    5fy3              0.040000       0.000092
                                                         0.097098       0.001511
                                                         0.283960      -0.094589
                                                         0.806764       0.000869
                                                         2.441624       0.000000
                                                         6.739673       0.000000
                                                        34.417212       0.000000
                          1      14    5fy2z             0.040000       0.000206
                                                         0.097098       0.003380
                                                         0.283960      -0.211507
                                                         0.806764       0.001943
                                                         2.441624       0.000000
                                                         6.739673       0.000000
                                                        34.417212       0.000000
                          1      14    5fyz2             0.040000       0.000206
                                                         0.097098       0.003380
                                                         0.283960      -0.211507
                                                         0.806764       0.001943
                                                         2.441624       0.000000
                                                         6.739673       0.000000
                                                        34.417212       0.000000
                          1      14    5fz3              0.040000       0.000092
                                                         0.097098       0.001511
                                                         0.283960      -0.094589
                                                         0.806764       0.000869
                                                         2.441624       0.000000
                                                         6.739673       0.000000
                                                        34.417212       0.000000

                          1      15    5gx4              0.040000       0.000014
                                                         0.097098       0.001608
                                                         0.283960       0.004604
                                                         0.806764      -0.003474
                                                         2.441624       0.000000
                                                         6.739673       0.000000
                                                        34.417212       0.000000
                          1      15    5gx3y             0.040000       0.000036
                                                         0.097098       0.004255
                                                         0.283960       0.012180
                                                         0.806764      -0.009191
                                                         2.441624       0.000000
                                                         6.739673       0.000000
                                                        34.417212       0.000000
                          1      15    5gx3z             0.040000       0.000036
                                                         0.097098       0.004255
                                                         0.283960       0.012180
                                                         0.806764      -0.009191
                                                         2.441624       0.000000
                                                         6.739673       0.000000
                                                        34.417212       0.000000
                          1      15    5gx2y2            0.040000       0.000046
                                                         0.097098       0.005493
                                                         0.283960       0.015725
                                                         0.806764      -0.011865
                                                         2.441624       0.000000
                                                         6.739673       0.000000
                                                        34.417212       0.000000
                          1      15    5gx2yz            0.040000       0.000080
                                                         0.097098       0.009514
                                                         0.283960       0.027236
                                                         0.806764      -0.020551
                                                         2.441624       0.000000
                                                         6.739673       0.000000
                                                        34.417212       0.000000
                          1      15    5gx2z2            0.040000       0.000046
                                                         0.097098       0.005493
                                                         0.283960       0.015725
                                                         0.806764      -0.011865
                                                         2.441624       0.000000
                                                         6.739673       0.000000
                                                        34.417212       0.000000
                          1      15    5gxy3             0.040000       0.000036
                                                         0.097098       0.004255
                                                         0.283960       0.012180
                                                         0.806764      -0.009191
                                                         2.441624       0.000000
                                                         6.739673       0.000000
                                                        34.417212       0.000000
                          1      15    5gxy2z            0.040000       0.000080
                                                         0.097098       0.009514
                                                         0.283960       0.027236
                                                         0.806764      -0.020551
[...]

 M. Del Ben, J. Hutter, J. VandeVondele.
 J. Chem. Theory Comput. 8, 4177-4188 (2012).
 Second-Order Moller-Plesset Perturbation Theory in the Condensed Phase: An 
 Efficient and Massively Parallel Gaussian and Plane Waves Approach.
 https://doi.org/10.1021/ct300531w

 M. Guidon, J. Hutter, J. VandeVondele.
 J. Chem. Theory Comput. 5, 3010-3021 (2009).
 Robust Periodic Hartree-Fock Exchange for Large-Scale Simulations Using 
 Gaussian Basis Sets.
 https://doi.org/10.1021/ct900494g

 M. Guidon, F. Schiffmann, J. Hutter, J. VandeVondele.
 J. Chem. Phys. 128, 214104 (2008).
 Ab initio molecular dynamics using hybrid density functionals.
 https://doi.org/10.1063/1.2931945

 L. Genovese, T. Deutsch, S. Goedecker.
 J. Chem. Phys. 127, 054704 (2007).
 Efficient and accurate three-dimensional Poisson solver for surface problems.
 https://doi.org/10.1063/1.2754685

 J. VandeVondele, J. Hutter.
 J. Chem. Phys. 127, 114105 (2007).
 Gaussian basis sets for accurate calculations on molecular systems in gas and 
 condensed phases.
 https://doi.org/10.1063/1.2770708

 L. Genovese, T. Deutsch, A. Neelov, S. Goedecker, G. Beylkin.
 J. Chem. Phys. 125, 074105 (2006).
 Efficient solution of Poisson's equation with free boundary conditions.
 https://doi.org/10.1063/1.2335442

 M. Frigo, S. G. Johnson.
 Proc. IEEE 93, 216-231 (2005).
 The design and implementation of FFTW3.
 https://doi.org/10.1109/JPROC.2004.840301

 M. Krack, M. Parrinello.
 Phys. Chem. Chem. Phys. 2, 2105-2112 (2000).
 All-electron ab-initio molecular dynamics.
 https://doi.org/10.1039/b001167n

 G. Lippert, J. Hutter, M. Parrinello.
 Theor. Chem. Acc. 103, 124-140 (1999).
 The Gaussian and augmented-plane-wave density functional method for ab initio 
 molecular dynamics simulations.
 https://doi.org/10.1007/s002140050523

 J. P. Perdew, K. Burke, M. Ernzerhof.
 Phys. Rev. Lett. 77, 3865-3868 (1996).
 Generalized gradient approximation made simple.
 https://doi.org/10.1103/PhysRevLett.77.3865


 -------------------------------------------------------------------------------
 -                                                                             -
 -                                T I M I N G                                  -
 -                                                                             -
 -------------------------------------------------------------------------------
 SUBROUTINE                       CALLS  ASD         SELF TIME        TOTAL TIME
                                MAXIMUM       AVERAGE  MAXIMUM  AVERAGE  MAXIMUM
 CP2K                                 1  1.0    0.016    0.036 1413.619 1413.625
 qs_energies                          1  2.0    0.000    0.000 1413.017 1413.159
 scf_env_do_scf                       1  3.0    0.000    0.000 1280.173 1280.184
 scf_env_do_scf_inner_loop           78  4.0    0.002    0.004 1280.173 1280.184
 qs_ks_build_kohn_sham_matrix        79  7.0    0.011    0.014 1242.270 1242.442
 qs_ks_update_qs_env                 78  5.0    0.001    0.001 1240.650 1240.820
 rebuild_ks_matrix                   78  6.0    0.000    0.000 1240.642 1240.811
 hfx_ks_matrix                       79  8.0    0.001    0.002 1122.802 1122.835
 integrate_four_center               79  9.0   12.704   15.940 1122.796 1122.821
 integrate_four_center_main          79 10.0    4.997   47.025  809.856 1049.986
 integrate_four_center_bin        18102 11.0  804.860 1046.163  804.860 1046.163
 mp_sync                            839  9.5  240.893  635.926  240.893  635.926
 mp2_main                             1  3.0    0.000    0.000  131.199  131.339
 mp2_gpw_main                         1  4.0    0.000    0.000  129.369  129.389
 rpa_ri_compute_en                    1  5.0    0.000    0.000  112.304  112.305
 rpa_num_int                          1  6.0    0.001    0.001  111.787  111.817
 compute_GW_self_energy             100  7.0    0.001    0.005   60.250   61.176
 compute_GW_self_energy_deep        100  8.0   28.487   28.634   59.745   60.668
 calc_screening_functions             1 10.0   56.183   57.171   56.989   57.979
 fft_wrap_pw1pw2                   1650  9.9    0.032    0.040   47.449   51.507
 fft_wrap_pw1pw2_250               1176 11.1    0.921    1.159   45.151   50.557
 parallel_gemm_fm                   376  8.4    0.001    0.001   47.357   48.220
 parallel_gemm_fm_cosma             376  9.4   47.356   48.220   47.356   48.220
 start_bse_calculation                1  7.0    0.000    0.002   47.947   47.949
 fft3d_ps                          1650 11.9    5.876    8.441   43.793   47.712
 mp_alltoall_z22v                  1650 13.9   36.135   39.526   36.135   39.526
 cp_fm_diag_elpa                     84  7.0    0.000    0.000   32.430   32.567
 cp_fm_diag_elpa_base                84  8.0   30.567   31.934   30.871   32.124
 prepare_gapw_den                    79  8.0    0.002    0.002   30.514   31.066
 mp_sum_d                         11372  6.9   23.751   30.464   23.751   30.464
 qs_rho_update_rho_low               79  5.0    0.001    0.002   28.682   28.699
 create_hermitian_form_of_ABBA        1  8.0    0.000    0.001   24.303   24.417
 calculate_rho_elec                  79  6.0    0.104    0.147   24.230   24.231
 pw_poisson_solve                    79  8.0    0.259    0.360   23.439   23.482
 calculate_rho_atom                 316  9.0    1.698   23.008    1.698   23.008
 qs_vxc_create                       79  8.0    0.001    0.001   22.750   22.750
 xc_vxc_pw_create                    78  9.0    0.165    0.227   22.749   22.749
 x_to_yz                            705 12.9    0.713    1.296   20.410   22.712
 mp_sum_dv                        29677 10.1   21.320   22.042   21.320   22.042
 diagonalize_C                        1  8.0    0.001    0.003   19.283   19.297
 calculate_vxc_atom                  79  8.0    0.044    0.507   18.366   18.366
 yz_to_x                            629 13.2    0.555    0.661   16.950   18.269
 xc_pw_derive                       468 11.0    0.003    0.004   17.723   18.202
 gaVxcgb_GC                         234  9.0    0.291   17.719    0.291   17.719
 cp_fm_power                          2  7.5    0.138    0.152   17.339   17.489
 mp2_ri_gpw_compute_in                1  5.0    0.008    0.012   17.040   17.043
 mp2_ri_gpw_compute_in_loop           1  6.0    0.000    0.000   16.998   17.001
 contract_B_L                         4  7.0    0.030    0.034   13.660   16.293
 density_rs2pw                       79  7.0    0.003    0.004   13.989   14.914
 mp2_eri_3c_integrate                 1  7.0    0.005    0.008    3.026   13.408
 integrate_set_3c                  1460  8.0    2.776   12.483    3.021   13.400
 mp_cart_create                     575  9.9   10.517   13.167   10.518   13.168
 dbt_pgrid_create_expert             84 10.8    0.000    0.000   10.483   13.132
 sum_up_and_integrate                79  8.0    0.001    0.002   12.006   12.704
 integrate_v_rspace                  79  9.0    0.002    0.003   11.923   12.632
 ps_wavelet_solve                    79  9.0    4.628    6.929   11.359   12.143
 xc_rho_set_and_dset_create          78 10.0    0.199    0.256   10.551   11.759
 xc_pw_divergence                    78 10.0    0.002    0.002   11.234   11.494
 potential_pw2rs                     79 10.0    0.008    0.011   11.289   11.352
 mp_waitany                       26336 11.5    9.433   11.202    9.433   11.202
 transfer_pw2rs                     396 10.6    0.007    0.011   10.198   11.113
 grid_collocate_task_list            79  7.0    9.416   10.611    9.416   10.611
 transfer_rs2pw                     396  8.4    0.010    0.015    8.418    9.007
 transfer_pw2rs_250                 159 11.0    1.797    2.081    6.758    7.863
 gspace_mixing                       77  5.0    0.101    0.143    7.398    7.429
 put_rho0_on_grid                    79  9.0    0.114    0.176    6.856    7.408
 mp_alltoall_d54                     79 10.0    3.495    7.281    3.495    7.281
 integrate_vhg0_rspace               79  8.0    0.433    0.507    5.507    6.163
 mp_sum_dm                         3638  7.6    5.673    6.052    5.673    6.052
 transfer_rs2pw_250                 159 10.0    1.702    1.944    5.359    5.878
 mp_waitall_1                     76086 12.0    4.219    5.323    4.219    5.323
 mp_alltoall_d45                     80 10.0    3.789    4.495    3.789    4.495
 calculate_rho_atom_coeff            79  6.0    0.238    0.447    4.451    4.467
 mp_alltoall_d11v                  1480  9.5    3.065    4.391    3.065    4.391
 fft_wrap_pw1pw2_90                 158 10.5    0.031    0.053    1.880    4.271
 qs_scf_new_mos                      78  5.0    0.001    0.001    3.686    3.782
 cp2k_distribution_to_z_slices       79  9.0    0.311    0.387    2.670    3.684
 broyden_mixing                      77  6.0    3.175    3.303    3.372    3.415
 eigensolver_symm                    79  6.0    0.005    0.006    3.254    3.260
 Vh_1c_gg_integrals                  79  8.0    0.034    1.486    1.835    3.164
 dbt_total                            8  8.0    0.000    0.002    3.103    3.103
 create_A                             1  8.0    0.006    0.011    2.981    3.015
 dbt_contract                         4  9.0    0.000    0.000    2.945    2.970
 fm_general_add_bse                   5 10.2    0.000    0.000    2.548    2.661
 cp_fm_redistribute_end              84  8.0    1.345    2.603    1.362    2.613
 rpa_num_int_RPA_matrix_operati     100  7.0    0.001    0.003    2.584    2.587
 mp_sum_l                          1025  6.3    1.054    2.474    1.054    2.474
 integrate_four_center_load          79 10.0    0.000    0.000    1.029    2.447
 hfx_load_balance                     1 11.0    0.000    0.000    1.029    2.447
 hfx_load_balance_range               1 12.0    0.000    0.000    1.015    2.433
 transfer_pw2rs_90                   79 12.0    0.382    0.476    1.917    2.282
 calc_mat_Q                         100  8.0    0.000    0.000    2.250    2.263
 contract_S_to_Q                    100  9.0    0.001    0.001    2.240    2.252
 mp_max_i                           667  2.9    0.767    2.228    0.767    2.228
 mp_isend_dv                      30301 12.0    1.162    2.213    1.162    2.213
 fm_general_add_bse_5_comm_buff       5 11.2    0.000    0.000    2.099    2.147
 communicate_buffer                   5 12.2    0.000    0.001    2.099    2.147
 dbt_copy                            12 10.1    0.000    0.000    1.871    1.926
 mp_waitall_2                        48 15.8    1.115    1.834    1.115    1.834
 pw_integral_ab_c1d_c1d_gs           79  9.0    0.217    0.265    0.800    1.823
 dbt_reshape                          8 11.6    0.059    0.065    1.758    1.803
 rs_grid_zero                       397 11.2    1.322    1.750    1.322    1.750
 xc_functional_eval                 546 10.9    0.001    0.002    0.938    1.746
 pbe_lda_eval                       546 11.9    0.937    1.745    0.937    1.745
 transfer_rs2pw_90                   79  9.0    0.393    0.469    1.549    1.731
 dbt_communicate_buffer               8 12.6    0.001    0.002    1.672    1.717
 compute_vec_Sigma_x_minus_vxc_       1  4.0    0.000    0.000    1.636    1.636
 cp_fm_syrk                           3  7.0    1.559    1.565    1.559    1.565
 powell_optimize                 907402 11.0    1.383    1.547    1.383    1.547
 calc_pair_dist_radii                 1 10.0    0.929    0.945    1.506    1.541
 integrate_four_center_getP          79 10.0    0.036    0.049    1.156    1.392
 transfer_pw2rs_30                   79 12.0    0.352    0.400    1.214    1.389
 pw_derive                          705 11.3    1.196    1.351    1.196    1.351
 create_B                             1  8.0    0.000    0.002    1.223    1.320
 pw_copy                           1180 10.6    1.109    1.293    1.109    1.293
 transfer_rs2pw_30                   79  9.0    0.452    0.534    1.147    1.265
 grid_integrate_task_list            79 10.0    0.167    1.251    0.167    1.251
 rs_gather_matrices                  79 10.0    0.003    0.020    0.464    1.211
 update_ks_atom                      79  8.0    0.136    0.318    0.996    1.163
 dbt_tas_multiply                     8 11.5    0.000    0.000    1.150    1.151
 dbt_tas_total                        8 12.5    0.002    0.004    1.150    1.150
 mp_sendrecv_dv                   30178 10.0    0.912    1.078    0.912    1.078
 calculate_rho0_atom                316  9.0    0.978    1.076    0.978    1.076
 pw_gather_p                        787 11.8    0.847    1.059    0.847    1.059
 qs_energies_init_hamiltonians        1  3.0    0.000    0.000    1.059    1.059
 dbt_remap                            8 10.0    0.001    0.001    1.058    1.058
 build_core_hamiltonian_matrix        1  4.0    0.000    0.000    1.055    1.055
 overlap_condnum                      1  5.0    0.000    0.000    1.042    1.054
 mp_isend_im2                      1328 13.3    0.373    1.046    0.373    1.046
 pw_scatter_p                       863 12.1    0.941    1.011    0.941    1.011
 arnoldi_conjugate_gradient           5  6.0    0.020    0.024    0.975    0.976
 abc_contract                      1460  9.0    0.244    0.918    0.244    0.918
 mp_bcast_dm                       2370  9.0    0.860    0.894    0.860    0.894
 pw_poisson_rebuild                  79  9.0    0.000    0.000    0.808    0.833
 ps_wavelet_create                    1 10.0    0.000    0.000    0.808    0.833
 RS_z_slice_distribution              1 11.0    0.194    0.220    0.808    0.833
 integrate_four_center_dist_KS       79 10.0    0.025    0.031    0.806    0.808
 dbt_tas_dbm                          8 13.5    0.000    0.000    0.808    0.808
 dbm_multiply                         8 15.5    0.619    0.777    0.619    0.777
 pw_poisson_set                      80  8.9    0.001    0.002    0.727    0.771
 dbt_tas_mm_1N                        6 14.5    0.000    0.000    0.612    0.770
 pw_copy_to_array                   787 11.8    0.563    0.729    0.563    0.729
 dbcsr_sym_matrix_vector_mult      6545  7.0    0.047    0.050    0.572    0.626
 create_integ_mat                     4  6.0    0.003    0.005    0.506    0.521
 pw_axpy                            785  9.3    0.408    0.512    0.408    0.512
 array2fm                             4  7.0    0.000    0.000    0.467    0.511
 cp_fm_cholesky_invert              101  8.0    0.479    0.492    0.479    0.492
 init_scf_run                         1  3.0    0.000    0.000    0.492    0.492
 cp_fm_uplo_to_full                 188  8.3    0.386    0.477    0.386    0.477
 mp_isend_dm3                      3488 11.5    0.370    0.468    0.370    0.468
 postprocess_bse                      1  9.0    0.000    0.000    0.434    0.464
 scf_env_initial_rho_setup            1  4.0    0.000    0.000    0.457    0.458
 copy_dbcsr_to_fm                   113  6.5    0.002    0.002    0.335    0.432
 dbcsr_multiply_generic             131  8.1    0.004    0.005    0.375    0.417
 pw_copy_from_array                 863 12.1    0.315    0.412    0.315    0.412
 transfer_rs2pw_10                   79  9.0    0.137    0.192    0.354    0.402
 cp_fm_cholesky_decompose           102  9.0    0.350    0.390    0.350    0.390
 get_oscillator_strengths             1 10.0    0.000    0.000    0.362    0.363
 fft_wrap_pw1pw2_30                 158 10.5    0.004    0.006    0.273    0.357
 transfer_pw2rs_10                   79 12.0    0.094    0.110    0.302    0.346
 mp_alltoall_i22                    388  9.2    0.238    0.337    0.238    0.337
 cp_fm_redistribute_start            84  8.0    0.120    0.137    0.197    0.336
 dbcsr_rep_row_to_rep_col_vec      6545  8.0    0.017    0.022    0.164    0.318
 mp_alltoall_z11v                   316 13.5    0.237    0.313    0.237    0.313
 compute_Erpa_by_freq_int           100  8.0    0.001    0.002    0.310    0.312
 pw_zero                            470 10.3    0.273    0.310    0.273    0.310
 dbcsr_desymmetrize_deep            115  7.5    0.007    0.008    0.213    0.304
 mp_isendrecv_dv                  60356 12.0    0.051    0.295    0.051    0.295
 cp_fm_to_fm_submat_general         112 10.1    0.201    0.286    0.201    0.286
 mp_rank_compare                   1650 12.9    0.236    0.270    0.236    0.270
 mp_bcast_b_src                     163  7.0    0.159    0.261    0.159    0.261
 array2fm_fill                        4  8.0    0.030    0.039    0.159    0.260
 multiply_cannon                    131  9.1    0.008    0.009    0.228    0.254
 dbt_tas_replicate                    8 13.5    0.061    0.083    0.214    0.242
 mp2_main_alloc_hfx                   1  4.0    0.100    0.239    0.100    0.239
 qs_init_subsys                       1  2.0    0.003    0.008    0.237    0.237
 mp_sum_i                            21  9.7    0.140    0.237    0.140    0.237
 restraint_control                    1  2.0    0.000    0.000    0.140    0.236
 multiply_cannon_loop               131 10.1    0.006    0.006    0.208    0.236
 dbcsr_col_vec_to_rep_row          6545  8.0    0.022    0.026    0.159    0.235
 mp_wait                            151  9.0    0.129    0.227    0.129    0.227
 dbt_tas_estimate_result_nze          4 12.0    0.006    0.007    0.227    0.227
 calculate_dm_sparse                 78  6.0    0.000    0.001    0.200    0.218
 cp_dbcsr_plus_fm_fm_t               78  7.0    0.001    0.001    0.199    0.217
 qs_env_setup                         1  3.0    0.000    0.000    0.202    0.206
 qs_env_rebuild_pw_env                2  3.5    0.000    0.000    0.202    0.206
 pw_env_rebuild                       1  5.0    0.000    0.000    0.202    0.206
 dbcsr_add_d                       9881  7.0    0.004    0.005    0.035    0.204
 dbcsr_add_anytype                 9881  8.0    0.006    0.026    0.031    0.200
 mp_alltoall_i                       39 13.9    0.120    0.194    0.120    0.194
 multiply_cannon_multrec           2040 11.1    0.148    0.187    0.149    0.188
 mp_sum_iv                          335  9.6    0.079    0.185    0.079    0.185
 yz_to_xz                           158 14.0    0.011    0.014    0.128    0.183
 dbcsr_complete_redistribute        273  8.4    0.028    0.035    0.166    0.183
 array2fm_isendrecv                   4  8.0    0.003    0.005    0.057    0.174
 cp_fm_symm                          79  7.0    0.163    0.169    0.163    0.169
 fm_general_add_bse_1_setup           5 11.2    0.125    0.164    0.125    0.164
 fm_general_add_bse_2_comm_entr       5 11.2    0.000    0.000    0.102    0.163
 create_qs_kind_set                   1  2.0    0.000    0.000    0.162    0.163
 read_qs_kind                         4  3.0    0.070    0.087    0.162    0.163
 array2fm_info                        4  8.0    0.129    0.155    0.134    0.158
 xz_to_yz                           158 11.0    0.008    0.010    0.129    0.157
 dbt_tas_communicate_buffer          16 15.9    0.002    0.002    0.114    0.153
 fft_wrap_pw1pw2_10                 158 10.5    0.001    0.002    0.113    0.146
 dbt_tas_replicate_communicate_       6 14.5    0.000    0.000    0.107    0.145
 -------------------------------------------------------------------------------

 The number of warnings for this run is : 1
 
 -------------------------------------------------------------------------------
  **** **** ******  **  PROGRAM ENDED AT                 2025-03-15 14:08:31.264
 ***** ** ***  *** **   PROGRAM RAN ON                     n2cn0655.ab2021.local
 **    ****   ******    PROGRAM RAN BY                                  metdyn02
 ***** **    ** ** **   PROGRAM PROCESS ID                                854885
  **** **  *******  **  PROGRAM STOPPED IN /scratch/hpc-prf-metdyn/metdyn02_Remi
                                           /10_MOL/05_MOL/aUKBqsEOTmq69kFe5R_nOg
                                           /5k_set_final_qzvp/GAQCAE/TZVP/GW+BSE
                                           /RILIM
