 DBCSR| CPU Multiplication driver                                           XSMM (U)
 DBCSR| Multrec recursion limit                                              512 (U)
 DBCSR| Multiplication stack size                                           1000 (D)
 DBCSR| Maximum elements for images                                    UNLIMITED (U)
 DBCSR| Multiplicative factor virtual images                                   1 (U)
 DBCSR| Use multiplication densification                                       T (D)
 DBCSR| Multiplication size stacks                                             3 (U)
 DBCSR| Use memory pool for CPU allocation                                     F (U)
 DBCSR| Number of 3D layers                                               SINGLE (U)
 DBCSR| Use MPI memory allocation                                              F (U)
 DBCSR| Use RMA algorithm                                                      F (U)
 DBCSR| Use Communication thread                                               T (U)
 DBCSR| Communication thread load                                             60 (D)
 DBCSR| MPI: My process id                                                     0
 DBCSR| MPI: Number of processes                                              32
 DBCSR| OMP: Current number of threads                                         8
 DBCSR| OMP: Max number of threads                                             8
 DBCSR| Split modifier for TAS multiplication algorithm                  1.0E+00 (U)


  **** **** ******  **  PROGRAM STARTED AT               2025-06-23 14:01:53.476
 ***** ** ***  *** **   PROGRAM STARTED ON                 n2cn0603.ab2021.local
 **    ****   ******    PROGRAM STARTED BY                              metdyn02
 ***** **    ** ** **   PROGRAM PROCESS ID                                509295
  **** **  *******  **  PROGRAM STARTED IN /scratch/hpc-prf-metdyn/metdyn02_Remi
                                           /10_MOL/05_MOL/aUKBqsEOTmq69kFe5R_nOg
                                           /5k_set_final_qzvp/SIDLIB/mini-SZV/TD
                                           DFT/1e-4

 CP2K| version string:                 CP2K version 2025.1 (Development Version)
 CP2K| source code revision number:                                  git:32ddf85
 CP2K| cp2kflags: omp libint fftw3 libxc libgrpp elpa parallel scalapack mpi_f08
 CP2K|             cosma xsmm plumed2 spglib libvori libbqb libvdwxc hdf5
 CP2K| is freely available from                            https://www.cp2k.org/
 CP2K| Program compiled at                         Mon May 19 11:32:37 CEST 2025
 CP2K| Program compiled on                                              n2login1
 CP2K| Program compiled for                                                local
 CP2K| Data directory path    /opt/software/pc2/EB-SW/software/CP2K/2024.1-foss-
 CP2K| Input file name                                                    GW.inp

 GLOBAL| Force Environment number                                              1
 GLOBAL| Basis set file name            /scratch/hpc-prf-metdyn/metdyn02_Remi/BA
 GLOBAL| Potential file name            /pc2/groups/hpc-prf-metdyn/metdyn02_Remi
 GLOBAL| MM Potential file name                                     MM_POTENTIAL
 GLOBAL| Coordinate file name                                      __STD_INPUT__
 GLOBAL| Method name                                                        CP2K
 GLOBAL| Project name                                                       MoS2
 GLOBAL| Run type                                                         ENERGY
 GLOBAL| FFT library                                                       FFTW3
 GLOBAL| Diagonalization library                                            ELPA
 GLOBAL| Cholesky decomposition library                                ScaLAPACK
 GLOBAL| DGEMM library                                                      BLAS
 GLOBAL| Minimum number of eigenvectors for ELPA usage                        16
 GLOBAL| Orthonormality check for eigenvectors                          DISABLED
 GLOBAL| Matrix multiplication library                                     COSMA
 GLOBAL| All-to-all communication in single precision                          F
 GLOBAL| FFTs using library dependent lengths                                  F
 GLOBAL| Grid backend                                                       AUTO
 GLOBAL| Global print level                                               MEDIUM
 GLOBAL| MPI I/O enabled                                                       T
 GLOBAL| Total number of message passing processes                            32
 GLOBAL| Number of threads for this process                                    8
 GLOBAL| This output is from process                                           0
 GLOBAL| OpenMP stack size per thread (OMP_STACKSIZE)                    default
 GLOBAL| CPU model name                          AMD EPYC 7763 64-Core Processor
 GLOBAL| CPUID                                                              1002

 MEMORY| system memory details [Kb]
 MEMORY|                        rank 0           min           max       average
 MEMORY| MemTotal            263897600     263897560     263897612     263897593
 MEMORY| MemFree             251744988     249142476     252308216     251359199
 MEMORY| Buffers                125076         25584        126184         89552
 MEMORY| Cached                7083300       6682296       9854176       7386487
 MEMORY| Slab                  1545308       1497676       2223608       1704076
 MEMORY| SReclaimable           408788        308072        995608        519017
 MEMORY| MemLikelyFree       259362152     259286784     259417612     259354256


 *** Fundamental physical constants (SI units) ***

 *** Literature: B. J. Mohr and B. N. Taylor,
 ***             CODATA recommended values of the fundamental physical
 ***             constants: 2006, Web Version 5.1
 ***             http://physics.nist.gov/constants

 Speed of light in vacuum [m/s]                             2.99792458000000E+08
 Magnetic constant or permeability of vacuum [N/A**2]       1.25663706143592E-06
 Electric constant or permittivity of vacuum [F/m]          8.85418781762039E-12
 Planck constant (h) [J*s]                                  6.62606896000000E-34
 Planck constant (h-bar) [J*s]                              1.05457162825177E-34
 Elementary charge [C]                                      1.60217648700000E-19
 Electron mass [kg]                                         9.10938215000000E-31
 Electron g factor [ ]                                     -2.00231930436220E+00
 Proton mass [kg]                                           1.67262163700000E-27
 Fine-structure constant                                    7.29735253760000E-03
 Rydberg constant [1/m]                                     1.09737315685270E+07
 Avogadro constant [1/mol]                                  6.02214179000000E+23
 Boltzmann constant [J/K]                                   1.38065040000000E-23
 Atomic mass unit [kg]                                      1.66053878200000E-27
 Bohr radius [m]                                            5.29177208590000E-11

 *** Conversion factors ***

 [u] -> [a.u.]                                              1.82288848426455E+03
 [Angstrom] -> [Bohr] = [a.u.]                              1.88972613288564E+00
 [a.u.] = [Bohr] -> [Angstrom]                              5.29177208590000E-01
 [a.u.] -> [s]                                              2.41888432650478E-17
 [a.u.] -> [fs]                                             2.41888432650478E-02
 [a.u.] -> [J]                                              4.35974393937059E-18
 [a.u.] -> [N]                                              8.23872205491840E-08
 [a.u.] -> [K]                                              3.15774647902944E+05
 [a.u.] -> [kJ/mol]                                         2.62549961709828E+03
 [a.u.] -> [kcal/mol]                                       6.27509468713739E+02
 [a.u.] -> [Pa]                                             2.94210107994716E+13
 [a.u.] -> [bar]                                            2.94210107994716E+08
 [a.u.] -> [atm]                                            2.90362800883016E+08
 [a.u.] -> [eV]                                             2.72113838565563E+01
 [a.u.] -> [Hz]                                             6.57968392072181E+15
 [a.u.] -> [1/cm] (wave numbers)                            2.19474631370540E+05
 [a.u./Bohr**2] -> [1/cm]                                   5.14048714338585E+03
 

 CELL_TOP| Volume [angstrom^3]:                                     27000.000000
 CELL_TOP| Vector a [angstrom    30.000     0.000     0.000   |a| =    30.000000
 CELL_TOP| Vector b [angstrom     0.000    30.000     0.000   |b| =    30.000000
 CELL_TOP| Vector c [angstrom     0.000     0.000    30.000   |c| =    30.000000
 CELL_TOP| Angle (b,c), alpha [degree]:                                90.000000
 CELL_TOP| Angle (a,c), beta  [degree]:                                90.000000
 CELL_TOP| Angle (a,b), gamma [degree]:                                90.000000
 CELL_TOP| Numerically orthorhombic:                                         YES
 CELL_TOP| Periodicity                                                      NONE

 GENERATE|  Preliminary Number of Bonds generated:                             0
 GENERATE|  Achieved consistency in connectivity generation.

 CELL| Volume [angstrom^3]:                                         27000.000000
 CELL| Vector a [angstrom]:      30.000     0.000     0.000   |a| =    30.000000
 CELL| Vector b [angstrom]:       0.000    30.000     0.000   |b| =    30.000000
 CELL| Vector c [angstrom]:       0.000     0.000    30.000   |c| =    30.000000
 CELL| Angle (b,c), alpha [degree]:                                    90.000000
 CELL| Angle (a,c), beta  [degree]:                                    90.000000
 CELL| Angle (a,b), gamma [degree]:                                    90.000000
 CELL| Numerically orthorhombic:                                             YES
 CELL| Periodicity                                                          NONE

 CELL_REF| Volume [angstrom^3]:                                     27000.000000
 CELL_REF| Vector a [angstrom    30.000     0.000     0.000   |a| =    30.000000
 CELL_REF| Vector b [angstrom     0.000    30.000     0.000   |b| =    30.000000
 CELL_REF| Vector c [angstrom     0.000     0.000    30.000   |c| =    30.000000
 CELL_REF| Angle (b,c), alpha [degree]:                                90.000000
 CELL_REF| Angle (a,c), beta  [degree]:                                90.000000
 CELL_REF| Angle (a,b), gamma [degree]:                                90.000000
 CELL_REF| Numerically orthorhombic:                                         YES
 CELL_REF| Periodicity                                                      NONE

 *******************************************************************************
 *******************************************************************************
 **                                                                           **
 **     #####                         ##              ##                      **
 **    ##   ##            ##          ##              ##                      **
 **   ##     ##                       ##            ######                    **
 **   ##     ##  ##   ##  ##   #####  ##  ##   ####   ##    #####    #####    **
 **   ##     ##  ##   ##  ##  ##      ## ##   ##      ##   ##   ##  ##   ##   **
 **   ##  ## ##  ##   ##  ##  ##      ####     ###    ##   ######   ######    **
 **    ##  ###   ##   ##  ##  ##      ## ##      ##   ##   ##       ##        **
 **     #######   #####   ##   #####  ##  ##  ####    ##    #####   ##        **
 **           ##                                                    ##        **
 **                                                                           **
 **                                                ... make the atoms dance   **
 **                                                                           **
 **            Copyright (C) by CP2K developers group (2000-2025)             **
 **                      J. Chem. Phys. 152, 194103 (2020)                    **
 **                                                                           **
 *******************************************************************************

 DFT| Spin restricted Kohn-Sham (RKS) calculation                            RKS
 DFT| Multiplicity                                                             1
 DFT| Number of spin states                                                    1
 DFT| Charge                                                                   0
 DFT| Self-interaction correction (SIC)                                       NO
 DFT| Cutoffs: density                                              1.000000E-10
 DFT|          gradient                                             1.000000E-10
 DFT|          tau                                                  1.000000E-10
 DFT|          cutoff_smoothing_range                               0.000000E+00
 DFT| XC density smoothing                                                  NONE
 DFT| XC derivatives                                                          PW

 FUNCTIONAL| PBE:
 FUNCTIONAL| J.P.Perdew, K.Burke, M.Ernzerhof, Phys. Rev. Letter, vol. 77, n 18,
 FUNCTIONAL|  pp. 3865-3868, (1996)sx=0.750sc=1.000{spin unpolarized}           


 QS| Method:                                                                GAPW
 QS| Density plane wave grid type                        NON-SPHERICAL FULLSPACE
 QS| Number of grid levels:                                                    4
 QS| Density cutoff [a.u.]:                                                250.0
 QS| Multi grid cutoff [a.u.]: 1) grid level                               250.0
 QS|                           2) grid level                                83.3
 QS|                           3) grid level                                27.8
 QS|                           4) grid level                                 9.3
 QS| Grid level progression factor:                                          3.0
 QS| Relative density cutoff [a.u.]:                                        50.0
 QS| Interaction thresholds: eps_pgf_orb:                                1.0E-12
 QS|                         eps_filter_matrix:                          0.0E+00
 QS|                         eps_core_charge:                            1.0E-14
 QS|                         eps_rho_gspace:                             1.0E-12
 QS|                         eps_rho_rspace:                             1.0E-12
 QS|                         eps_gvg_rspace:                             1.0E-06
 QS|                         eps_ppl:                                    1.0E-02
 QS|                         eps_ppnl:                                   1.0E-08
 QS| GAPW|      One center basis from orbital basis primitives
 QS| GAPW|                   eps_fit:                                    1.0E-04
 QS| GAPW|                   eps_iso:                                    1.0E-12
 QS| GAPW|                   eps_svd:                                    1.0E-08
 QS| GAPW|                   eps_cpc:                                    1.0E-12
 QS| GAPW|   atom-r-grid: quadrature:                                     GC_LOG
 QS| GAPW|      atom-s-grid:  max l :                                          2
 QS| GAPW|      max_l_rho0 :                                                   2


 ATOMIC KIND INFORMATION

  1. Atomic kind: F                                     Number of atoms:       3

     Orbital Basis Set                                    aug-SZV-MOLOPT-ae-mini

       Number of orbital shell sets:                                           2
       Number of orbital shells:                                               5
       Number of primitive Cartesian functions:                                8
       Number of Cartesian basis functions:                                    9
       Number of spherical basis functions:                                    9
       Norm type:                                                              2

       Normalised Cartesian orbitals:

                        Set   Shell   Orbital            Exponent    Coefficient

                          1       1    1s                6.464803      -0.288857
                                                         1.502281       0.386371
                                                         0.488588       0.291599
                                                         0.250000       0.000000
                                                         0.120000       0.000000

                          1       2    2s                6.464803       0.000000
                                                         1.502281      -0.205683
                                                         0.488588       0.226370
                                                         0.250000      -0.681175
                                                         0.120000       0.370388

                          1       3    2px               6.464803       2.291000
                                                         1.502281       1.440645
                                                         0.488588       0.228222
                                                         0.250000       0.000000
                                                         0.120000       0.000000
                          1       3    2py               6.464803       2.291000
                                                         1.502281       1.440645
                                                         0.488588       0.228222
                                                         0.250000       0.000000
                                                         0.120000       0.000000
                          1       3    2pz               6.464803       2.291000
                                                         1.502281       1.440645
                                                         0.488588       0.228222
                                                         0.250000       0.000000
                                                         0.120000       0.000000

                          1       4    3px               6.464803       0.000000
                                                         1.502281      -0.282020
                                                         0.488588       0.009318
                                                         0.250000      -0.007900
                                                         0.120000       0.104145
                          1       4    3py               6.464803       0.000000
                                                         1.502281      -0.282020
                                                         0.488588       0.009318
                                                         0.250000      -0.007900
                                                         0.120000       0.104145
                          1       4    3pz               6.464803       0.000000
                                                         1.502281      -0.282020
                                                         0.488588       0.009318
                                                         0.250000      -0.007900
                                                         0.120000       0.104145

                          2       1    1s              166.679130       5.102329
                                                        30.360812       4.934748
                                                         8.216821       1.537947

     RI Auxiliary Basis Set             RI_aug-SZV-MOLOPT-ae-mini_N_RI_023_s_p_d

       Number of orbital shell sets:                                           9
       Number of orbital shells:                                               9
       Number of primitive Cartesian functions:                                9
       Number of Cartesian basis functions:                                   25
       Number of spherical basis functions:                                   23
       Norm type:                                                              2

       Normalised Cartesian orbitals:

                        Set   Shell   Orbital            Exponent    Coefficient

                          1       1    1s                0.276469       0.271735

                          2       1    5px               0.276567       0.285884
                          2       1    5py               0.276567       0.285884
                          2       1    5pz               0.276567       0.285884

                          3       1    8dx2              0.299289       0.199328
                          3       1    8dxy              0.299289       0.345247
                          3       1    8dxz              0.299289       0.345247
                          3       1    8dy2              0.299289       0.199328
                          3       1    8dyz              0.299289       0.345247
                          3       1    8dz2              0.299289       0.199328

                          4       1    6px               0.965199       1.363676
                          4       1    6py               0.965199       1.363676
                          4       1    6pz               0.965199       1.363676

                          5       1    2s                1.128758       0.780478

                          6       1    7px               2.908370       5.413800
                          6       1    7py               2.908370       5.413800
                          6       1    7pz               2.908370       5.413800

                          7       1    3s                3.118719       1.672601

                          8       1    9dx2              3.694356      16.203252
                          8       1    9dxy              3.694356      28.064856
                          8       1    9dxz              3.694356      28.064856
                          8       1    9dy2              3.694356      16.203252
                          8       1    9dyz              3.694356      28.064856
                          8       1    9dz2              3.694356      16.203252

                          9       1    4s               14.099938       5.185886

       Atomic covalent radius [Angstrom]:                                  0.720

       Atomic van der Waals radius [Angstrom]:                             1.470

     The atoms of this atomic kind are PAW atoms (GAPW):
       Hard Gaussian function radius:                                      1.512
       Rho0 radius:                                                        1.512
       Maximum GTO radius used for PAW projector construction:            24.566

     GAPW Soft Basis Set                             aug-SZV-MOLOPT-ae-mini_soft

       Number of orbital shell sets:                                           2
       Number of orbital shells:                                               5
       Number of primitive Cartesian functions:                                4
       Number of Cartesian basis functions:                                    9
       Number of spherical basis functions:                                    9
       Norm type:                                                              2

       Normalised Cartesian orbitals:

                        Set   Shell   Orbital            Exponent    Coefficient

                          1       1    1s                1.502281       0.386371
                                                         0.488588       0.291599
                                                         0.250000       0.000000
                                                         0.120000       0.000000

                          1       2    2s                1.502281      -0.205683
                                                         0.488588       0.226370
                                                         0.250000      -0.681175
                                                         0.120000       0.370388

                          1       3    2px               1.502281       1.440645
                                                         0.488588       0.228222
                                                         0.250000       0.000000
                                                         0.120000       0.000000
                          1       3    2py               1.502281       1.440645
                                                         0.488588       0.228222
                                                         0.250000       0.000000
                                                         0.120000       0.000000
                          1       3    2pz               1.502281       1.440645
                                                         0.488588       0.228222
                                                         0.250000       0.000000
                                                         0.120000       0.000000

                          1       4    3px               1.502281      -0.282020
                                                         0.488588       0.009318
                                                         0.250000      -0.007900
                                                         0.120000       0.104145
                          1       4    3py               1.502281      -0.282020
                                                         0.488588       0.009318
                                                         0.250000      -0.007900
                                                         0.120000       0.104145
                          1       4    3pz               1.502281      -0.282020
                                                         0.488588       0.009318
                                                         0.250000      -0.007900
                                                         0.120000       0.104145

                          2       1    1s         

     AE Potential information for                                            ALL

       Description:                                       All-electron potential
                                          Krack, Parrinello, PCCP 2, 2105 (2000)

       Gaussian exponent of the core charge distribution:              10.470541
       Electronic configuration (s p d ...):                           4   5   0

  2. Atomic kind: O                                     Number of atoms:       3

     Orbital Basis Set                                    aug-SZV-MOLOPT-ae-mini

       Number of orbital shell sets:                                           2
       Number of orbital shells:                                               5
       Number of primitive Cartesian functions:                                7
       Number of Cartesian basis functions:                                    9
       Number of spherical basis functions:                                    9
       Norm type:                                                              2

       Normalised Cartesian orbitals:

                        Set   Shell   Orbital            Exponent    Coefficient

                          1       1    1s                0.162491       0.000000
                                                         0.380388       0.241685
                                                         1.169596       0.320234
                                                         5.033151      -0.239413

                          1       2    2s                0.162491       0.289618
                                                         0.380388      -0.257800
                                                         1.169596      -0.000000
                                                         5.033151      -0.000284

                          1       3    2px               0.162491       0.000000
                                                         0.380388       0.166902
                                                         1.169596       1.053568
                                                         5.033151       1.675450
                          1       3    2py               0.162491       0.000000
                                                         0.380388       0.166902
                                                         1.169596       1.053568
                                                         5.033151       1.675450
                          1       3    2pz               0.162491       0.000000
                                                         0.380388       0.166902
                                                         1.169596       1.053568
                                                         5.033151       1.675450

                          1       4    3px               0.162491       0.166510
                                                         0.380388      -0.081234
                                                         1.169596      -0.994066
                                                         5.033151       0.014231
                          1       4    3py               0.162491       0.166510
                                                         0.380388      -0.081234
                                                         1.169596      -0.994066
                                                         5.033151       0.014231
                          1       4    3pz               0.162491       0.166510
                                                         0.380388      -0.081234
                                                         1.169596      -0.994066
                                                         5.033151       0.014231

                          2       1    1s              130.709321       4.251922
                                                        23.808866       4.112298
                                                         6.443608       1.281622

     RI Auxiliary Basis Set             RI_aug-SZV-MOLOPT-ae-mini_N_RI_028_s_p_d

       Number of orbital shell sets:                                          10
       Number of orbital shells:                                              10
       Number of primitive Cartesian functions:                               10
       Number of Cartesian basis functions:                                   31
       Number of spherical basis functions:                                   28
       Norm type:                                                              2

       Normalised Cartesian orbitals:

                        Set   Shell   Orbital            Exponent    Coefficient

                          1       1    1s                0.357489       0.329502

                          2       1    5px               0.409748       0.467289
                          2       1    5py               0.409748       0.467289
                          2       1    5pz               0.409748       0.467289

                          3       1    8dx2              0.443879       0.397304
                          3       1    8dxy              0.443879       0.688150
                          3       1    8dxz              0.443879       0.688150
                          3       1    8dy2              0.443879       0.397304
                          3       1    8dyz              0.443879       0.688150
                          3       1    8dz2              0.443879       0.397304

                          4       1    2s                1.054753       0.741777

                          5       1    6px               1.767021       2.903971
                          5       1    6py               1.767021       2.903971
                          5       1    6pz               1.767021       2.903971

                          6       1    9dx2              2.138835       6.226152
                          6       1    9dxy              2.138835      10.784012
                          6       1    9dxz              2.138835      10.784012
                          6       1    9dy2              2.138835       6.226152
                          6       1    9dyz              2.138835      10.784012
                          6       1    9dz2              2.138835       6.226152

                          7       1    3s                3.026195       1.635245

                          8       1   10dx2              8.012449      62.805651
                          8       1   10dxy              8.012449     108.782579
                          8       1   10dxz              8.012449     108.782579
                          8       1   10dy2              8.012449      62.805651
                          8       1   10dyz              8.012449     108.782579
                          8       1   10dz2              8.012449      62.805651

                          9       1    4s                8.361610       3.504512

                         10       1    7px               8.422062      20.450934
                         10       1    7py               8.422062      20.450934
                         10       1    7pz               8.422062      20.450934

       Atomic covalent radius [Angstrom]:                                  0.730

       Atomic van der Waals radius [Angstrom]:                             1.520

     The atoms of this atomic kind are PAW atoms (GAPW):
       Hard Gaussian function radius:                                      1.512
       Rho0 radius:                                                        1.512
       Maximum GTO radius used for PAW projector construction:            24.566

     GAPW Soft Basis Set                             aug-SZV-MOLOPT-ae-mini_soft

       Number of orbital shell sets:                                           2
       Number of orbital shells:                                               5
       Number of primitive Cartesian functions:                                3
       Number of Cartesian basis functions:                                    9
       Number of spherical basis functions:                                    9
       Norm type:                                                              2

       Normalised Cartesian orbitals:

                        Set   Shell   Orbital            Exponent    Coefficient

                          1       1    1s                0.162491       0.000000
                                                         0.380388       0.241685
                                                         1.169596       0.320234

                          1       2    2s                0.162491       0.289618
                                                         0.380388      -0.257800
                                                         1.169596      -0.000000

                          1       3    2px               0.162491       0.000000
                                                         0.380388       0.166902
                                                         1.169596       1.053568
                          1       3    2py               0.162491       0.000000
                                                         0.380388       0.166902
                                                         1.169596       1.053568
                          1       3    2pz               0.162491       0.000000
                                                         0.380388       0.166902
                                                         1.169596       1.053568

                          1       4    3px               0.162491       0.166510
                                                         0.380388      -0.081234
                                                         1.169596      -0.994066
                          1       4    3py               0.162491       0.166510
                                                         0.380388      -0.081234
                                                         1.169596      -0.994066
                          1       4    3pz               0.162491       0.166510
                                                         0.380388      -0.081234
                                                         1.169596      -0.994066

                          2       1    1s         

     AE Potential information for                                            ALL

       Description:                                       All-electron potential
                                          Krack, Parrinello, PCCP 2, 2105 (2000)

       Gaussian exponent of the core charge distribution:               8.154466
       Electronic configuration (s p d ...):                           4   4   0

  3. Atomic kind: C                                     Number of atoms:       8

     Orbital Basis Set                                    aug-SZV-MOLOPT-ae-mini

       Number of orbital shell sets:                                           2
       Number of orbital shells:                                               5
       Number of primitive Cartesian functions:                                7
       Number of Cartesian basis functions:                                    9
       Number of spherical basis functions:                                    9
       Norm type:                                                              2

       Normalised Cartesian orbitals:

                        Set   Shell   Orbital            Exponent    Coefficient

                          1       1    2s                0.114558       0.000000
                                                         0.222289       0.161536
                                                         0.683483       0.214036
                                                         2.941249      -0.160017

                          1       2    3s                0.114558       0.000272
                                                         0.222289       0.256636
                                                         0.683483      -0.079244
                                                         2.941249       0.000032

                          1       3    3px               0.114558       0.000000
                                                         0.222289       0.085276
                                                         0.683483       0.538304
                                                         2.941249       0.856044
                          1       3    3py               0.114558       0.000000
                                                         0.222289       0.085276
                                                         0.683483       0.538304
                                                         2.941249       0.856044
                          1       3    3pz               0.114558       0.000000
                                                         0.222289       0.085276
                                                         0.683483       0.538304
                                                         2.941249       0.856044

                          1       4    4px               0.114558      -0.035043
                                                         0.222289      -0.159067
                                                         0.683483       0.106927
                                                         2.941249      -0.036832
                          1       4    4py               0.114558      -0.035043
                                                         0.222289      -0.159067
                                                         0.683483       0.106927
                                                         2.941249      -0.036832
                          1       4    4pz               0.114558      -0.035043
                                                         0.222289      -0.159067
                                                         0.683483       0.106927
                                                         2.941249      -0.036832

                          2       1    1s               71.616837       2.707801
                                                        13.045096       2.618883
                                                         3.530512       0.816191

     RI Auxiliary Basis Set             RI_aug-SZV-MOLOPT-ae-mini_N_RI_022_s_p_d

       Number of orbital shell sets:                                          10
       Number of orbital shells:                                              10
       Number of primitive Cartesian functions:                               10
       Number of Cartesian basis functions:                                   24
       Number of spherical basis functions:                                   22
       Norm type:                                                              2

       Normalised Cartesian orbitals:

                        Set   Shell   Orbital            Exponent    Coefficient

                          1       1    9dx2              0.319489       0.223463
                          1       1    9dxy              0.319489       0.387050
                          1       1    9dxz              0.319489       0.387050
                          1       1    9dy2              0.319489       0.223463
                          1       1    9dyz              0.319489       0.387050
                          1       1    9dz2              0.319489       0.223463

                          2       1    1s                0.357304       0.329373

                          3       1    7px               0.413040       0.471987
                          3       1    7py               0.413040       0.471987
                          3       1    7pz               0.413040       0.471987

                          4       1    2s                0.585920       0.477297

                          5       1    3s                0.962549       0.692592

                          6       1    8px               1.175289       1.744299
                          6       1    8py               1.175289       1.744299
                          6       1    8pz               1.175289       1.744299

                          7       1    4s                1.583093       1.005866

                          8       1   10dx2              1.968757       5.385741
                          8       1   10dxy              1.968757       9.328377
                          8       1   10dxz              1.968757       9.328377
                          8       1   10dy2              1.968757       5.385741
                          8       1   10dyz              1.968757       9.328377
                          8       1   10dz2              1.968757       5.385741

                          9       1    5s                2.602827       1.460475

                         10       1    6s                4.278785       2.120315

       Atomic covalent radius [Angstrom]:                                  0.770

       Atomic van der Waals radius [Angstrom]:                             1.700

     The atoms of this atomic kind are PAW atoms (GAPW):
       Hard Gaussian function radius:                                      1.512
       Rho0 radius:                                                        1.512
       Maximum GTO radius used for PAW projector construction:            24.566

     GAPW Soft Basis Set                             aug-SZV-MOLOPT-ae-mini_soft

       Number of orbital shell sets:                                           2
       Number of orbital shells:                                               5
       Number of primitive Cartesian functions:                                5
       Number of Cartesian basis functions:                                    9
       Number of spherical basis functions:                                    9
       Norm type:                                                              2

       Normalised Cartesian orbitals:

                        Set   Shell   Orbital            Exponent    Coefficient

                          1       1    2s                0.114558       0.000000
                                                         0.222289       0.161536
                                                         0.683483       0.214036
                                                         2.941249      -0.160017

                          1       2    3s                0.114558       0.000272
                                                         0.222289       0.256636
                                                         0.683483      -0.079244
                                                         2.941249       0.000032

                          1       3    3px               0.114558       0.000000
                                                         0.222289       0.085276
                                                         0.683483       0.538304
                                                         2.941249       0.856044
                          1       3    3py               0.114558       0.000000
                                                         0.222289       0.085276
                                                         0.683483       0.538304
                                                         2.941249       0.856044
                          1       3    3pz               0.114558       0.000000
                                                         0.222289       0.085276
                                                         0.683483       0.538304
                                                         2.941249       0.856044

                          1       4    4px               0.114558      -0.035043
                                                         0.222289      -0.159067
                                                         0.683483       0.106927
                                                         2.941249      -0.036832
                          1       4    4py               0.114558      -0.035043
                                                         0.222289      -0.159067
                                                         0.683483       0.106927
                                                         2.941249      -0.036832
                          1       4    4pz               0.114558      -0.035043
                                                         0.222289      -0.159067
                                                         0.683483       0.106927
                                                         2.941249      -0.036832

                          2       1    1s                3.530512       0.816191

     AE Potential information for                                            ALL

       Description:                                       All-electron potential
                                          Krack, Parrinello, PCCP 2, 2105 (2000)

       Gaussian exponent of the core charge distribution:               4.109048
       Electronic configuration (s p d ...):                           4   2   0

  4. Atomic kind: N                                     Number of atoms:       1

     Orbital Basis Set                                    aug-SZV-MOLOPT-ae-mini

       Number of orbital shell sets:                                           2
       Number of orbital shells:                                               5
       Number of primitive Cartesian functions:                                7
       Number of Cartesian basis functions:                                    9
       Number of spherical basis functions:                                    9
       Norm type:                                                              2

       Normalised Cartesian orbitals:

                        Set   Shell   Orbital            Exponent    Coefficient

                          1       1    1s                0.112012       0.000000
                                                         0.285714       0.194997
                                                         0.878496       0.258372
                                                         3.780455      -0.193164

                          1       2    2s                0.112012      -0.247059
                                                         0.285714       0.355178
                                                         0.878496       0.105643
                                                         3.780455      -0.000189

                          1       3    2px               0.112012       0.000000
                                                         0.285714       0.116706
                                                         0.878496       0.736703
                                                         3.780455       1.171552
                          1       3    2py               0.112012       0.000000
                                                         0.285714       0.116706
                                                         0.878496       0.736703
                                                         3.780455       1.171552
                          1       3    2pz               0.112012       0.000000
                                                         0.285714       0.116706
                                                         0.878496       0.736703
                                                         3.780455       1.171552

                          1       4    3px               0.112012       0.096580
                                                         0.285714      -0.017996
                                                         0.878496       0.000162
                                                         3.780455       0.000013
                          1       4    3py               0.112012       0.096580
                                                         0.285714      -0.017996
                                                         0.878496       0.000162
                                                         3.780455       0.000013
                          1       4    3pz               0.112012       0.096580
                                                         0.285714      -0.017996
                                                         0.878496       0.000162
                                                         3.780455       0.000013

                          2       1    1s               99.106168       3.454863
                                                        18.052312       3.341413
                                                         4.885660       1.041372

     RI Auxiliary Basis Set             RI_aug-SZV-MOLOPT-ae-mini_N_RI_023_s_p_d

       Number of orbital shell sets:                                           9
       Number of orbital shells:                                               9
       Number of primitive Cartesian functions:                                9
       Number of Cartesian basis functions:                                   25
       Number of spherical basis functions:                                   23
       Norm type:                                                              2

       Normalised Cartesian orbitals:

                        Set   Shell   Orbital            Exponent    Coefficient

                          1       1    8dx2              0.247473       0.142917
                          1       1    8dxy              0.247473       0.247539
                          1       1    8dxz              0.247473       0.247539
                          1       1    8dy2              0.247473       0.142917
                          1       1    8dyz              0.247473       0.247539
                          1       1    8dz2              0.247473       0.142917

                          2       1    1s                0.269982       0.266939

                          3       1    5px               0.290292       0.303728
                          3       1    5py               0.290292       0.303728
                          3       1    5pz               0.290292       0.303728

                          4       1    2s                0.773829       0.588023

                          5       1    6px               1.337055       2.049400
                          5       1    6py               1.337055       2.049400
                          5       1    6pz               1.337055       2.049400

                          6       1    3s                2.228530       1.299942

                          7       1    9dx2              2.368474       7.442682
                          7       1    9dxy              2.368474      12.891104
                          7       1    9dxz              2.368474      12.891104
                          7       1    9dy2              2.368474       7.442682
                          7       1    9dyz              2.368474      12.891104
                          7       1    9dz2              2.368474       7.442682

                          8       1    7px               6.206242      13.962911
                          8       1    7py               6.206242      13.962911
                          8       1    7pz               6.206242      13.962911

                          9       1    4s                6.295867       2.832707

       Atomic covalent radius [Angstrom]:                                  0.750

       Atomic van der Waals radius [Angstrom]:                             1.550

     The atoms of this atomic kind are PAW atoms (GAPW):
       Hard Gaussian function radius:                                      1.512
       Rho0 radius:                                                        1.512
       Maximum GTO radius used for PAW projector construction:            24.566

     GAPW Soft Basis Set                             aug-SZV-MOLOPT-ae-mini_soft

       Number of orbital shell sets:                                           2
       Number of orbital shells:                                               5
       Number of primitive Cartesian functions:                                4
       Number of Cartesian basis functions:                                    9
       Number of spherical basis functions:                                    9
       Norm type:                                                              2

       Normalised Cartesian orbitals:

                        Set   Shell   Orbital            Exponent    Coefficient

                          1       1    1s                0.112012       0.000000
                                                         0.285714       0.194997
                                                         0.878496       0.258372
                                                         3.780455      -0.193164

                          1       2    2s                0.112012      -0.247059
                                                         0.285714       0.355178
                                                         0.878496       0.105643
                                                         3.780455      -0.000189

                          1       3    2px               0.112012       0.000000
                                                         0.285714       0.116706
                                                         0.878496       0.736703
                                                         3.780455       1.171552
                          1       3    2py               0.112012       0.000000
                                                         0.285714       0.116706
                                                         0.878496       0.736703
                                                         3.780455       1.171552
                          1       3    2pz               0.112012       0.000000
                                                         0.285714       0.116706
                                                         0.878496       0.736703
                                                         3.780455       1.171552

                          1       4    3px               0.112012       0.096580
                                                         0.285714      -0.017996
                                                         0.878496       0.000162
                                                         3.780455       0.000013
                          1       4    3py               0.112012       0.096580
                                                         0.285714      -0.017996
                                                         0.878496       0.000162
                                                         3.780455       0.000013
                          1       4    3pz               0.112012       0.096580
                                                         0.285714      -0.017996
                                                         0.878496       0.000162
                                                         3.780455       0.000013

                          2       1    1s         

     AE Potential information for                                            ALL

       Description:                                       All-electron potential
                                          Krack, Parrinello, PCCP 2, 2105 (2000)

       Gaussian exponent of the core charge distribution:               5.979100
       Electronic configuration (s p d ...):                           4   3   0

  5. Atomic kind: H                                     Number of atoms:       4

     Orbital Basis Set                                    aug-SZV-MOLOPT-ae-mini

       Number of orbital shell sets:                                           1
       Number of orbital shells:                                               4
       Number of primitive Cartesian functions:                                7
       Number of Cartesian basis functions:                                    6
       Number of spherical basis functions:                                    6
       Norm type:                                                              2

       Normalised Cartesian orbitals:

                        Set   Shell   Orbital            Exponent    Coefficient

                          1       1    1s                0.065428       0.000000
                                                         0.100112       0.016532
                                                         0.243077       0.102760
                                                         0.625955       0.185857
                                                         1.822143       0.188385
                                                         6.513144       0.143430
                                                        35.523221       0.095030

                          1       2    2s                0.065428       0.083549
                                                         0.100112       0.009605
                                                         0.243077       0.002524
                                                         0.625955       0.013457
                                                         1.822143       0.000000
                                                         6.513144       0.000000
                                                        35.523221       0.000000

                          1       3    3s                0.065428       0.037407
                                                         0.100112      -0.169070
                                                         0.243077      -0.018899
                                                         0.625955       0.012806
                                                         1.822143       0.000000
                                                         6.513144       0.000000
                                                        35.523221       0.000000

                          1       4    2px               0.065428       0.059908
                                                         0.100112      -0.023770
                                                         0.243077       0.000032
                                                         0.625955       0.017779
                                                         1.822143       0.000000
                                                         6.513144       0.000000
                                                        35.523221       0.000000
                          1       4    2py               0.065428       0.059908
                                                         0.100112      -0.023770
                                                         0.243077       0.000032
                                                         0.625955       0.017779
                                                         1.822143       0.000000
                                                         6.513144       0.000000
                                                        35.523221       0.000000
                          1       4    2pz               0.065428       0.059908
                                                         0.100112      -0.023770
                                                         0.243077       0.000032
                                                         0.625955       0.017779
                                                         1.822143       0.000000
                                                         6.513144       0.000000
                                                        35.523221       0.000000

     RI Auxiliary Basis Set             RI_aug-SZV-MOLOPT-ae_N_RI_007_s_p_d_f_g_

       Number of orbital shell sets:                                           5
       Number of orbital shells:                                               5
       Number of primitive Cartesian functions:                                5
       Number of Cartesian basis functions:                                    7
       Number of spherical basis functions:                                    7
       Norm type:                                                              2

       Normalised Cartesian orbitals:

                        Set   Shell   Orbital            Exponent    Coefficient

                          1       1    1s                0.148777       0.170731

                          2       1    5px               0.367452       0.407794
                          2       1    5py               0.367452       0.407794
                          2       1    5pz               0.367452       0.407794

                          3       1    2s                0.510503       0.430437

                          4       1    3s                1.106366       0.768837

                          5       1    4s                5.955292       2.716986

       Atomic covalent radius [Angstrom]:                                  0.320

       Atomic van der Waals radius [Angstrom]:                             1.090

     The atoms of this atomic kind are PAW atoms (GAPW):
       Hard Gaussian function radius:                                      1.200
       Rho0 radius:                                                        1.200
       Maximum GTO radius used for PAW projector construction:            24.566

     GAPW Soft Basis Set                             aug-SZV-MOLOPT-ae-mini_soft

       Number of orbital shell sets:                                           1
       Number of orbital shells:                                               4
       Number of primitive Cartesian functions:                                6
       Number of Cartesian basis functions:                                    6
       Number of spherical basis functions:                                    6
       Norm type:                                                              2

       Normalised Cartesian orbitals:

                        Set   Shell   Orbital            Exponent    Coefficient

                          1       1    1s                0.065428       0.000000
                                                         0.100112       0.016532
                                                         0.243077       0.102760
                                                         0.625955       0.185857
                                                         1.822143       0.188385
                                                         6.513144       0.000000

                          1       2    2s                0.065428       0.083549
                                                         0.100112       0.009605
                                                         0.243077       0.002524
                                                         0.625955       0.013457
                                                         1.822143       0.000000
                                                         6.513144       0.000000

                          1       3    3s                0.065428       0.037407
                                                         0.100112      -0.169070
                                                         0.243077      -0.018899
                                                         0.625955       0.012806
                                                         1.822143       0.000000
                                                         6.513144       0.000000

                          1       4    2px               0.065428       0.059908
                                                         0.100112      -0.023770
                                                         0.243077       0.000032
                                                         0.625955       0.017779
                                                         1.822143       0.000000
                                                         6.513144       0.000000
                          1       4    2py               0.065428       0.059908
                                                         0.100112      -0.023770
                                                         0.243077       0.000032
                                                         0.625955       0.017779
                                                         1.822143       0.000000
                                                         6.513144       0.000000
                          1       4    2pz               0.065428       0.059908
                                                         0.100112      -0.023770
                                                         0.243077       0.000032
                                                         0.625955       0.017779
                                                         1.822143       0.000000
                                                         6.513144       0.000000

     AE Potential information for                                            ALL

       Description:                                       All-electron potential
                                          Krack, Parrinello, PCCP 2, 2105 (2000)

       Gaussian exponent of the core charge distribution:              12.500000
       Electronic configuration (s p d ...):                           1   0   0


 MOLECULE KIND INFORMATION


 All atoms are their own molecule, skipping detailed information


 TOTAL NUMBERS AND MAXIMUM NUMBERS

  Total number of            - Atomic kinds:                                   5
                             - Atoms:                                         19
                             - Shell sets:                                    34
                             - Shells:                                        91
                             - Primitive Cartesian functions:                136
                             - Cartesian basis functions:                    159
                             - Spherical basis functions:                    159

  Maximum angular momentum of the orbital basis functions:                     1


 MODULE QUICKSTEP: ATOMIC COORDINATES IN ANGSTROM

   Atom Kind Element         X             Y             Z       Z(eff)     Mass
      1    1 F     9     15.152332     15.000000     10.857427   9.0000  18.9984
      2    2 O     8     13.465841     15.000000     12.866146   8.0000  15.9994
      3    3 C     6     15.761891     15.000000     17.345410   6.0000  12.0107
      4    3 C     6     14.429825     15.000000     16.931442   6.0000  12.0107
      5    4 N     7     13.357614     15.000000     17.963479   7.0000  14.0067
      6    2 O     8     12.192934     15.000000     17.569748   8.0000  15.9994
      7    3 C     6     14.071096     15.000000     15.593730   6.0000  12.0107
      8    2 O     8     13.712594     15.000000     19.142573   8.0000  15.9994
      9    3 C     6     15.081428     15.000000     14.619870   6.0000  12.0107
     10    3 C     6     15.718737     15.000000     12.066173   6.0000  12.0107
     11    3 C     6     14.632127     15.000000     13.198331   6.0000  12.0107
     12    5 H     1     13.023886     15.000000     15.299015   1.0000   1.0079
     13    5 H     1     15.989911     15.000000     18.408898   1.0000   1.0079
     14    1 F     9     16.515897     13.900735     12.160822   9.0000  18.9984
     15    1 F     9     16.515897     16.099265     12.160822   9.0000  18.9984
     16    3 C     6     16.428819     15.000000     15.020440   6.0000  12.0107
     17    3 C     6     16.760697     15.000000     16.374965   6.0000  12.0107
     18    5 H     1     17.226616     15.000000     14.281373   1.0000   1.0079
     19    5 H     1     17.807066     15.000000     16.676140   1.0000   1.0079



 SCF PARAMETERS         Density guess:                                    ATOMIC
                        --------------------------------------------------------
                        max_scf:                                             500
                        max_scf_history:                                       0
                        max_diis:                                              4
                        --------------------------------------------------------
                        eps_scf:                                        1.00E-06
                        eps_scf_history:                                0.00E+00
                        eps_diis:                                       1.00E-01
                        eps_eigval:                                     1.00E-05
                        --------------------------------------------------------
                        level_shift [a.u.]:                             0.000000
                        added MOs                                       104    0
                        --------------------------------------------------------
                        Mixing method:                            BROYDEN_MIXING
                                                charge density mixing in g-space
                        --------------------------------------------------------
                        No outer SCF

 PW_GRID| Information for grid number                                          1
 PW_GRID| Grid distributed over                                    32 processors
 PW_GRID| Real space group dimensions                                    32    1
 PW_GRID| the grid is blocked:                                                NO
 PW_GRID| Cutoff [a.u.]                                                    250.0
 PW_GRID| spherical cutoff:                                                   NO
 PW_GRID|   Bounds   1           -202     202                Points:         405
 PW_GRID|   Bounds   2           -202     202                Points:         405
 PW_GRID|   Bounds   3           -202     202                Points:         405
 PW_GRID| Volume element (a.u.^3)  0.2743E-02     Volume (a.u.^3)    182205.0337
 PW_GRID| Grid span                                                    FULLSPACE
 PW_GRID|   Distribution                         Average         Max         Min
 PW_GRID|   G-Vectors                          2075941.4     2076030     2075625
 PW_GRID|   G-Rays                                5125.8        5126        5125
 PW_GRID|   Real Space Points                  2075941.4     2132325     1968300

 PW_GRID| Information for grid number                                          2
 PW_GRID| Number of the reference grid                                         1
 PW_GRID| Grid distributed over                                    32 processors
 PW_GRID| Real space group dimensions                                    32    1
 PW_GRID| the grid is blocked:                                                NO
 PW_GRID| Cutoff [a.u.]                                                     83.3
 PW_GRID| spherical cutoff:                                                   NO
 PW_GRID|   Bounds   1           -120     119                Points:         240
 PW_GRID|   Bounds   2           -120     119                Points:         240
 PW_GRID|   Bounds   3           -120     119                Points:         240
 PW_GRID| Volume element (a.u.^3)  0.1318E-01     Volume (a.u.^3)    182205.0337
 PW_GRID| Grid span                                                    FULLSPACE
 PW_GRID|   Distribution                         Average         Max         Min
 PW_GRID|   G-Vectors                           432000.0      432480      431760
 PW_GRID|   G-Rays                                1800.0        1802        1799
 PW_GRID|   Real Space Points                   432000.0      460800      403200

 PW_GRID| Information for grid number                                          3
 PW_GRID| Number of the reference grid                                         1
 PW_GRID| Grid distributed over                                    32 processors
 PW_GRID| Real space group dimensions                                    32    1
 PW_GRID| the grid is blocked:                                                NO
 PW_GRID| Cutoff [a.u.]                                                     27.8
 PW_GRID| spherical cutoff:                                                   NO
 PW_GRID|   Bounds   1            -67      67                Points:         135
 PW_GRID|   Bounds   2            -67      67                Points:         135
 PW_GRID|   Bounds   3            -67      67                Points:         135
 PW_GRID| Volume element (a.u.^3)  0.7406E-01     Volume (a.u.^3)    182205.0337
 PW_GRID| Grid span                                                    FULLSPACE
 PW_GRID|   Distribution                         Average         Max         Min
 PW_GRID|   G-Vectors                            76886.7       77085       76680
 PW_GRID|   G-Rays                                 569.5         571         568
 PW_GRID|   Real Space Points                    76886.7       91125       72900

 PW_GRID| Information for grid number                                          4
 PW_GRID| Number of the reference grid                                         1
 PW_GRID| Grid distributed over                                    32 processors
 PW_GRID| Real space group dimensions                                    32    1
 PW_GRID| the grid is blocked:                                                NO
 PW_GRID| Cutoff [a.u.]                                                      9.3
 PW_GRID| spherical cutoff:                                                   NO
 PW_GRID|   Bounds   1            -40      39                Points:          80
 PW_GRID|   Bounds   2            -40      39                Points:          80
 PW_GRID|   Bounds   3            -40      39                Points:          80
 PW_GRID| Volume element (a.u.^3)  0.3559         Volume (a.u.^3)    182205.0337
 PW_GRID| Grid span                                                    FULLSPACE
 PW_GRID|   Distribution                         Average         Max         Min
 PW_GRID|   G-Vectors                            16000.0       16160       15920
 PW_GRID|   G-Rays                                 200.0         202         199
 PW_GRID|   Real Space Points                    16000.0       19200       12800

 POISSON| Solver                                                         WAVELET
 POISSON| Wavelet| Scaling function                                           40
 POISSON| Periodicity                                                       NONE

 RS_GRID| Information for grid number                                          1
 RS_GRID|   Bounds   1           -202     202                Points:         405
 RS_GRID|   Bounds   2           -202     202                Points:         405
 RS_GRID|   Bounds   3           -202     202                Points:         405
 RS_GRID| Real space distribution over                                  2 groups
 RS_GRID| Real space distribution along direction                              1
 RS_GRID| Border size                                                         33
 RS_GRID| Real space distribution over                                  4 groups
 RS_GRID| Real space distribution along direction                              2
 RS_GRID| Border size                                                         33
 RS_GRID| Real space distribution over                                  4 groups
 RS_GRID| Real space distribution along direction                              3
 RS_GRID| Border size                                                         33
 RS_GRID|   Distribution                         Average         Max         Min
 RS_GRID|   Planes                                 268.5         269         268
 RS_GRID|   Distribution                         Average         Max         Min
 RS_GRID|   Planes                                 167.2         168         167
 RS_GRID|   Distribution                         Average         Max         Min
 RS_GRID|   Planes                                 167.2         168         167

 RS_GRID| Information for grid number                                          2
 RS_GRID|   Bounds   1           -120     119                Points:         240
 RS_GRID|   Bounds   2           -120     119                Points:         240
 RS_GRID|   Bounds   3           -120     119                Points:         240
 RS_GRID| Real space distribution over                                  2 groups
 RS_GRID| Real space distribution along direction                              1
 RS_GRID| Border size                                                         35
 RS_GRID| Real space distribution over                                  4 groups
 RS_GRID| Real space distribution along direction                              2
 RS_GRID| Border size                                                         35
 RS_GRID| Real space distribution over                                  4 groups
 RS_GRID| Real space distribution along direction                              3
[...]
 molecular dynamics simulations.
 https://doi.org/10.1007/s002140050523

 J. P. Perdew, K. Burke, M. Ernzerhof.
 Phys. Rev. Lett. 77, 3865-3868 (1996).
 Generalized gradient approximation made simple.
 https://doi.org/10.1103/PhysRevLett.77.3865


 -------------------------------------------------------------------------------
 -                                                                             -
 -                                T I M I N G                                  -
 -                                                                             -
 -------------------------------------------------------------------------------
 SUBROUTINE                       CALLS  ASD         SELF TIME        TOTAL TIME
                                MAXIMUM       AVERAGE  MAXIMUM  AVERAGE  MAXIMUM
 CP2K                                 1  1.0    0.019    0.035  406.997  407.000
 qs_energies                          1  2.0    0.000    0.000  406.412  406.416
 qs_energies_properties               1  3.0    0.000    0.000  281.557  281.559
 tddfpt                               1  4.0    0.000    0.000  281.557  281.559
 tddfpt_energies                      1  5.0    0.000    0.000  281.487  281.490
 tddfpt_davidson_solver               1  6.0    0.001    0.001  279.332  279.334
 tddfpt_compute_Aop_evects            9  7.0    0.000    0.000  278.043  278.046
 fhxc_kernel                          9  8.0    0.006    0.007  265.361  265.364
 fft_wrap_pw1pw2                   5063 11.1    0.078    0.098  145.927  148.077
 fft_wrap_pw1pw2_250               3563 12.1    6.850    7.447  141.683  143.745
 pw_poisson_solve                   249  9.4    2.812    3.095  137.465  138.406
 scf_env_do_scf                       1  3.0    0.000    0.000  122.547  122.548
 scf_env_do_scf_inner_loop           69  4.0    0.001    0.005  122.547  122.548
 tddfpt_apply_coulomb               180  9.0    0.002    0.003  112.900  113.819
 fft3d_ps                          5063 13.1   51.832   58.021  107.967  111.392
 ps_wavelet_solve                   249 10.4   78.248   83.523   99.963  100.356
 qs_ks_update_qs_env                 69  5.0    0.000    0.001   88.409   88.413
 rebuild_ks_matrix                   69  6.0    0.000    0.000   88.405   88.408
 qs_ks_build_kohn_sham_matrix        69  7.0    0.009    0.010   88.404   88.408
 mp_alltoall_d54                    249 11.4   12.134   77.961   12.134   77.961
 xc_pw_derive                      1497 11.0    0.009    0.011   68.712   69.841
 qs_rho_update_rho_low              251  7.9    0.003    0.003   66.415   66.779
 calculate_rho_elec                 251  8.9    1.964    2.019   66.150   66.515
 tddfpt_apply_xc_analytic           180  9.0    0.457    0.499   64.418   64.846
 mp_alltoall_z22v                  5063 15.1   40.869   51.972   40.869   51.972
 xc_pw_divergence                   249 10.7    0.005    0.006   45.781   46.722
 xc_calc_2nd_deriv_analytical      1260 10.5    3.110    3.413   37.690   37.794
 density_rs2pw                      251  9.9    0.008    0.009   35.534   37.163
 yz_to_x                           2500 14.4    6.809    7.404   27.035   32.819
 x_to_yz                           2563 13.8    8.360    9.395   29.004   32.748
 grid_collocate_task_list           251  9.9   27.510   29.166   27.510   29.166
 integrate_v_rspace                 249  9.0    0.006    0.008   26.990   27.047
 qs_vxc_create                       69  8.0    0.001    0.001   26.693   26.693
 xc_vxc_pw_create                    69  9.0    0.727    0.781   26.692   26.692
 potential_pw2rs                    249 10.0    0.059    0.064   25.991   26.124
 transfer_pw2rs                    1246 10.9    0.014    0.018   19.139   19.557
 transfer_rs2pw                    1255 10.8    0.017    0.020   17.813   19.448
 prepare_gapw_den                   250  8.7    0.003    0.004   19.130   19.356
 put_rho0_on_grid                   250  9.7    1.996    2.078   18.707   18.934
 mp_waitany                       33022 12.8   15.219   17.804   15.219   17.804
 gspace_mixing                       68  5.0    0.532    0.547   14.553   14.554
 integrate_four_center              429  9.8    8.448   11.783   14.371   14.393
 mp_alltoall_d45                    250 11.4    9.084   14.068    9.084   14.068
 transfer_rs2pw_250                 502 11.8    5.020    5.394   12.292   13.947
 xc_rho_set_and_dset_create          70 10.0    0.411    0.446   12.933   13.505
 transfer_pw2rs_250                 499 11.7    5.347    5.659   12.456   13.428
 pw_gather_p                       2500 13.4   11.806   13.370   11.806   13.370
 tddfpt_apply_hfx                     9  8.0    0.002    0.002   12.010   12.010
 pw_scatter_p                      2563 12.8   11.284   11.819   11.284   11.819
 broyden_mixing                      68  6.0   10.868   11.094   11.131   11.156
 tddft_hfx_matrix                   360  9.0    0.004    0.005   10.852   10.863
 pw_derive                         2244 11.8    9.319    9.844    9.319    9.844
 mp_alltoall_d11v                 15884 11.6    4.574    9.703    4.574    9.703
 integrate_vhg0_rspace              249  9.4    0.086    0.124    8.335    8.354
 sum_up_and_integrate                69  8.0    0.001    0.001    7.713    7.722
 dbcsr_multiply_generic            1555 10.3    0.035    0.038    6.280    7.488
 mp_waitall_1                    147622 13.8    5.137    6.712    5.137    6.712
 mp_sync                           2272 11.5    3.389    6.486    3.389    6.486
 pw_copy                           3380 11.0    5.727    6.079    5.727    6.079
 mp_sum_d                          5872  7.6    3.380    5.837    3.380    5.837
 pw_copy_to_array                  2500 13.4    4.750    5.728    4.750    5.728
 cp2k_distribution_to_z_slices      249 10.4    2.306    2.686    4.648    5.489
 multiply_cannon                   1555 11.3    0.070    0.073    3.843    5.475
 pw_poisson_set                     250 10.4    0.005    0.005    5.024    5.284
 cp_dbcsr_plus_fm_fm_t              249  8.4    0.002    0.002    4.660    5.092
 cp_dbcsr_sm_fm_multiply           1126  8.6    0.012    0.014    4.933    4.947
 copy_dbcsr_to_fm                  1217  9.3    0.009    0.009    3.440    4.540
 multiply_cannon_loop              1555 12.3    0.041    0.043    2.966    4.539
 pw_axpy                           2678 10.8    3.994    4.376    3.994    4.376
 multiply_cannon_metrocomm3       12440 13.3    0.016    0.017    1.999    4.060
 mp_alltoall_i22                   4962 11.4    2.855    4.014    2.855    4.014
 fft_wrap_pw1pw2_90                 500 11.9    0.173    0.184    3.245    3.886
 dbcsr_desymmetrize_deep           1218 10.3    0.013    0.018    2.796    3.880
 rs_grid_zero                      1248 11.9    3.445    3.596    3.445    3.596
 hfx_ks_matrix                       69  8.0    0.001    0.001    3.528    3.546
 transfer_pw2rs_90                  249 12.0    0.834    0.937    2.989    3.367
 xc_functional_eval                1564 10.8    0.001    0.003    2.775    3.305
 pbe_lda_eval                      1564 11.8    2.774    3.302    2.774    3.302
 transfer_pw2rs_30                  249 12.0    1.722    1.866    3.003    3.192
 pw_integral_ab_c1d_c1d_gs          249 10.4    2.702    2.747    2.980    3.154
 pw_copy_from_array                2563 12.8    2.973    3.121    2.973    3.121
 cp_dbcsr_sm_fm_multiply_core      1126  9.6    0.002    0.002    1.696    3.063
 mp_sum_l                          5955 10.6    1.928    2.957    1.928    2.957
 pw_zero                           2760 10.6    2.612    2.778    2.612    2.778
 transfer_rs2pw_90                  251 11.9    0.813    0.935    2.470    2.604
 transfer_rs2pw_30                  251 11.9    0.809    0.927    2.257    2.381
 mp_sendrecv_dv                   15562 12.9    2.041    2.190    2.041    2.190
 mp_max_i                           722  5.1    0.867    1.824    0.867    1.824
 Vh_1c_gg_integrals                 249  9.4    0.027    0.069    0.866    1.656
 qs_energies_init_hamiltonians        1  3.0    0.000    0.000    1.617    1.617
 build_core_hamiltonian_matrix        1  4.0    0.000    0.000    1.547    1.547
 overlap_condnum                      1  5.0    0.000    0.000    1.546    1.546
 integrate_four_center_main         429 10.8    0.060    0.072    1.439    1.516
 multiply_cannon_metrocomm1       12440 13.3    0.008    0.008    0.437    1.486
 mp_sum_dm                        14371 10.0    1.151    1.485    1.151    1.485
 integrate_four_center_bin        29811 11.8    1.379    1.447    1.379    1.447
 cp_fm_write_unformatted             24  7.0    1.320    1.363    1.320    1.363
 calculate_xc_2nd_deriv_atom        180  9.0    0.113    0.344    0.308    1.216
 qs_scf_new_mos                      69  5.0    0.001    0.001    1.042    1.214
 mp_isend_dv                      50022 13.7    0.682    1.159    0.682    1.159
 dbcsr_complete_redistribute       3744 10.5    0.087    0.115    1.114    1.154
 rs_scatter_matrices                251  9.9    0.003    0.003    0.354    1.132
 tddfpt_write_restart                 1  6.0    0.035    1.125    1.130    1.131
 cp_fm_diag_elpa                    120  7.2    0.000    0.000    1.089    1.091
 prepare_dr1dr                     1260 11.5    0.978    1.060    0.978    1.060
 multiply_cannon_metrocomm4       10885 13.3    0.017    0.018    0.439    1.026
 fft_wrap_pw1pw2_30                 500 11.9    0.038    0.040    0.738    0.966
 make_m2s                          3110 11.3    0.018    0.019    0.401    0.953
 rs_gather_matrices                 249 10.0    0.005    0.006    0.624    0.928
 cp_fm_diag_elpa_base               120  8.3    0.422    0.656    0.451    0.908
 make_images                       3110 12.3    0.044    0.046    0.343    0.889
 grid_integrate_task_list           249 10.0    0.368    0.880    0.368    0.880
 gaVxcgb_GC                         747  9.7    0.178    0.875    0.178    0.875
 transfer_rs2pw_10                  251 11.9    0.185    0.210    0.778    0.862
 cp_fm_redistribute_end             120  8.2    0.434    0.852    0.436    0.854
 mp_allgather_i34                  1555 12.3    0.760    0.821    0.760    0.821
 transfer_pw2rs_10                  249 12.0    0.251    0.281    0.676    0.806
 calculate_dm_sparse                 69  6.0    0.000    0.000    0.594    0.767
 hybrid_alltoall_any               4328 13.5    0.018    0.020    0.147    0.756
 powell_optimize                 459749 11.0    0.665    0.684    0.665    0.684
 tddfpt_apply_energy_diff             9  8.0    0.001    0.001    0.672    0.672
 make_images_data                  3110 13.3    0.019    0.023    0.117    0.663
 scale_and_distribute               498 11.4    0.573    0.626    0.573    0.626
 init_scf_run                         1  3.0    0.000    0.000    0.624    0.625
 cp_fm_power                          1  6.0    0.000    0.000    0.553    0.605
 scf_env_initial_rho_setup            1  4.0    0.000    0.000    0.603    0.603
 mp_max_d                           231  8.4    0.301    0.583    0.301    0.583
 self_consistency_check              69  5.0    0.000    0.000    0.300    0.582
 cp_sm_mix                           69  6.0    0.000    0.000    0.300    0.582
 tddfpt_compute_residual_vects        8  7.0    0.000    0.000    0.580    0.580
 pw_poisson_rebuild                 249 10.4    0.000    0.000    0.537    0.551
 ps_wavelet_create                    1 10.0    0.000    0.000    0.537    0.551
 RS_z_slice_distribution              1 11.0    0.461    0.493    0.537    0.551
 calc_screening_functions             1 10.0    0.130    0.131    0.516    0.530
 parallel_gemm_fm                  1647  8.3    0.001    0.002    0.485    0.509
 parallel_gemm_fm_cosma            1647  9.3    0.483    0.508    0.483    0.508
 cp_fm_redistribute_start           120  8.2    0.193    0.467    0.202    0.477
 tddfpt_orthonormalize_psi1_psi      10  6.9    0.010    0.011    0.471    0.471
 copy_fm_to_dbcsr                  2525  9.6    0.006    0.007    0.408    0.453
 mp_sum_dv                        23820  8.9    0.329    0.433    0.329    0.433
 mp_alltoall_i11v                 12450 11.5    0.214    0.432    0.214    0.432
 pw_scale                           636  9.5    0.391    0.427    0.391    0.427
 eigensolver_symm                    69  6.0    0.005    0.005    0.405    0.406
 calc_pair_dist_radii                 1 10.0    0.120    0.122    0.399    0.405
 calculate_vxc_atom                  69  8.0    0.046    0.089    0.394    0.394
 qs_init_subsys                       1  2.0    0.001    0.001    0.391    0.391
 qs_env_setup                         1  3.0    0.000    0.000    0.388    0.389
 qs_env_rebuild_pw_env                2  3.5    0.000    0.000    0.388    0.389
 pw_env_rebuild                       1  5.0    0.000    0.000    0.388    0.389
 pw_grid_setup                        4  6.0    0.000    0.000    0.378    0.378
 pw_grid_setup_internal               4  7.0    0.005    0.006    0.377    0.378
 tddfpt_construct_ground_state_       1  6.0    0.000    0.000    0.375    0.377
 calculate_rho_atom                1250  9.7    0.276    0.368    0.276    0.368
 pw_grid_sort                         4  8.0    0.219    0.226    0.307    0.318
 arnoldi_conjugate_gradient           7  6.0    0.007    0.009    0.301    0.301
 tddfpt_print_nto_analysis            1  6.0    0.001    0.002    0.280    0.280
 calculate_rho_atom_coeff           251  8.9    0.054    0.063    0.262    0.262
 mp_bcast_b_src                     189  7.8    0.027    0.261    0.027    0.261
 create_kernel_env                    1  6.0    0.000    0.000    0.223    0.246
 xc_prep_2nd_deriv                    1  7.0    0.000    0.000    0.223    0.246
 write_mo_set_to_restart             69  5.0    0.008    0.233    0.233    0.238
 write_mo_set_low                     4  6.0    0.000    0.000    0.225    0.233
 fft_wrap_pw1pw2_10                 500 11.9    0.008    0.009    0.183    0.227
 xc_2nd_deriv_of_r                 1080 10.0    0.009    0.043    0.044    0.214
 tddfpt_compute_ritz_vects            9  7.0    0.002    0.003    0.211    0.211
 dbcsr_finalize                   10599 11.3    0.024    0.038    0.144    0.196
 cp_fm_uplo_to_full                 121  9.3    0.035    0.194    0.035    0.194
 mp_isendrecv_dv                  42036 12.3    0.087    0.185    0.087    0.185
 dbcsr_sym_matrix_vector_mult      2247  7.0    0.016    0.018    0.172    0.180
 cp_fm_geeig                         20  7.0    0.001    0.001    0.150    0.151
 cp_fm_trace_a1b1t1_aa            16500  8.0    0.034    0.036    0.147    0.148
 create_qs_kind_set                   1  2.0    0.000    0.000    0.142    0.143
 read_qs_kind                         5  3.0    0.059    0.078    0.142    0.143
 update_ks_atom                     249  8.7    0.038    0.047    0.112    0.143
 cp_fm_norm                           2  6.0    0.056    0.131    0.056    0.131
 make_images_sizes                 3110 13.3    0.002    0.002    0.113    0.130
 mp_alltoall_i44                   3110 14.3    0.111    0.128    0.111    0.128
 integrate_four_center_dist_KS      429 10.8    0.017    0.024    0.115    0.123
 mp_cart_sub                       2436 11.3    0.117    0.119    0.117    0.119
 mp_cart_create                    2467 10.5    0.111    0.117    0.113    0.119
 dbcsr_add_d                       3415  7.0    0.002    0.002    0.029    0.119
 dbcsr_add_anytype                 3415  8.0    0.003    0.013    0.027    0.117
 dbcsr_merge_all                   8922 12.3    0.054    0.070    0.083    0.106
 mp_bcast_dm                       9462  9.7    0.074    0.096    0.074    0.096
 tddfpt_orthogonalize_psi1_psi0      10  6.9    0.000    0.000    0.072    0.093
 dbcsr_create_new                 33854 11.1    0.066    0.070    0.088    0.093
 sort_shells                          4  9.0    0.088    0.092    0.088    0.092
 mp_isend_dm3                      9006 12.8    0.067    0.085    0.067    0.085
 xc_pw_smooth                        69 10.0    0.000    0.000    0.071    0.084
 parser_read_line                 26497  4.0    0.004    0.004    0.083    0.084
 cp_fm_syrk                           1  7.0    0.075    0.083    0.075    0.083
 offload_free_buffer                257 10.2    0.065    0.082    0.065    0.082
 parser_read_line_low                41  5.0    0.002    0.025    0.079    0.080
 broadcast_input_information         41  6.0    0.007    0.007    0.076    0.079
 dbcsr_iterator_start             52742 10.6    0.049    0.060    0.060    0.078
 mp_rank_compare                   5063 14.1    0.067    0.077    0.067    0.077
 integrate_four_center_getP         429 10.8    0.016    0.017    0.074    0.077
 dbcsr_col_vec_to_rep_row          2247  8.0    0.008    0.008    0.062    0.070
 qs_env_update_s_mstruct              1  4.0    0.000    0.000    0.012    0.069
 dbcsr_work_create                14805 12.2    0.033    0.045    0.051    0.069
 qs_create_task_list                  1  5.0    0.000    0.000    0.012    0.069
 generate_qs_task_list                1  6.0    0.000    0.000    0.012    0.069
 distribute_tasks                     1  7.0    0.000    0.000    0.011    0.068
 calculate_ecore_overlap              1  4.0    0.000    0.000    0.057    0.068
 create_local_tasks                   1  8.0    0.000    0.000    0.011    0.068
 mp_alltoall_l11v                     1  9.0    0.011    0.068    0.011    0.068
 mixing_init                          1  5.0    0.064    0.067    0.067    0.068
 scf_post_calculation_gpw             1  3.0    0.000    0.000    0.066    0.067
 write_available_results              1  4.0    0.000    0.000    0.066    0.066
 write_mo_free_results                1  5.0    0.009    0.010    0.066    0.066
 tddfpt_dipole_operator               1  5.0    0.000    0.000    0.066    0.066
 tddfpt_print_excitation_analys       1  6.0    0.000    0.001    0.065    0.065
 copy_fm_to_dbcsr_bc               2525 10.6    0.014    0.015    0.055    0.059
 multiply_cannon_multrec          12440 13.3    0.022    0.053    0.027    0.057
 mp_bcast_i_src                     164  7.0    0.051    0.056    0.051    0.056
 vxc_of_r_new                       414  9.0    0.002    0.009    0.012    0.056
 mp_bcast_dv                       2322  9.0    0.041    0.051    0.041    0.051
 dbcsr_copy                       12772  8.5    0.022    0.024    0.046    0.051
 dbcsr_data_new                  148471 12.4    0.044    0.051    0.044    0.051
 integrate_four_center_load         429 10.8    0.000    0.001    0.026    0.049
 dbcsr_work_destroy_all           14805 13.1    0.023    0.032    0.034    0.048
 calculate_rho0_atom               1250  9.7    0.046    0.048    0.046    0.048
 hfx_load_balance                     1 11.0    0.000    0.000    0.026    0.048
 dbcsr_data_release              219299 12.4    0.037    0.044    0.037    0.044
 cp_fm_triangular_multiply           60  8.0    0.042    0.042    0.042    0.042
 hfx_load_balance_range               1 12.0    0.000    0.000    0.020    0.042
 -------------------------------------------------------------------------------

 The number of warnings for this run is : 1
 
 -------------------------------------------------------------------------------
  **** **** ******  **  PROGRAM ENDED AT                 2025-06-23 14:08:42.943
 ***** ** ***  *** **   PROGRAM RAN ON                     n2cn0603.ab2021.local
 **    ****   ******    PROGRAM RAN BY                                  metdyn02
 ***** **    ** ** **   PROGRAM PROCESS ID                                509295
  **** **  *******  **  PROGRAM STOPPED IN /scratch/hpc-prf-metdyn/metdyn02_Remi
                                           /10_MOL/05_MOL/aUKBqsEOTmq69kFe5R_nOg
                                           /5k_set_final_qzvp/SIDLIB/mini-SZV/TD
                                           DFT/1e-4
