SIRIUS 7.5.2, git hash: https://api.github.com/repos/electronic-structure/SIRIUS/git/ref/tags/v7.5.2
 DBCSR| CPU Multiplication driver                                           XSMM (U)
 DBCSR| Multrec recursion limit                                              512 (U)
 DBCSR| Multiplication stack size                                           1000 (D)
 DBCSR| Maximum elements for images                                    UNLIMITED (U)
 DBCSR| Multiplicative factor virtual images                                   1 (U)
 DBCSR| Use multiplication densification                                       T (D)
 DBCSR| Multiplication size stacks                                             3 (U)
 DBCSR| Use memory pool for CPU allocation                                     F (U)
 DBCSR| Number of 3D layers                                               SINGLE (U)
 DBCSR| Use MPI memory allocation                                              F (U)
 DBCSR| Use RMA algorithm                                                      F (U)
 DBCSR| Use Communication thread                                               T (U)
 DBCSR| Communication thread load                                             75 (D)
 DBCSR| MPI: My process id                                                     0
 DBCSR| MPI: Number of processes                                             192
 DBCSR| OMP: Current number of threads                                         4
 DBCSR| OMP: Max number of threads                                             4
 DBCSR| Split modifier for TAS multiplication algorithm                  1.0E+00 (U)


  **** **** ******  **  PROGRAM STARTED AT               2025-03-15 03:13:21.989
 ***** ** ***  *** **   PROGRAM STARTED ON                 n2cn0231.ab2021.local
 **    ****   ******    PROGRAM STARTED BY                              metdyn02
 ***** **    ** ** **   PROGRAM PROCESS ID                               2387790
  **** **  *******  **  PROGRAM STARTED IN /scratch/hpc-prf-metdyn/metdyn02_Remi
                                           /10_MOL/05_MOL/aUKBqsEOTmq69kFe5R_nOg
                                           /5k_set_final_qzvp/BZTRZO/DZVP/GW+BSE
                                           /RILIM

 CP2K| version string:                 CP2K version 2025.1 (Development Version)
 CP2K| source code revision number:                                  git:f0c7327
 CP2K| cp2kflags: omp libint fftw3 libxc libgrpp elpa parallel scalapack mpi_f08
 CP2K|             cosma xsmm plumed2 spglib sirius libvori libbqb libvdwxc hdf5
 CP2K| is freely available from                            https://www.cp2k.org/
 CP2K| Program compiled at                          Wed Mar 12 18:25:30 CET 2025
 CP2K| Program compiled on                                              n2login1
 CP2K| Program compiled for                                                local
 CP2K| Data directory path    /opt/software/pc2/EB-SW/software/CP2K/2024.1-foss-
 CP2K| Input file name                                                    GW.inp

 GLOBAL| Force Environment number                                              1
 GLOBAL| Basis set file name            /scratch/hpc-prf-metdyn/metdyn02_Remi/BA
 GLOBAL| Potential file name            /pc2/groups/hpc-prf-metdyn/metdyn02_Remi
 GLOBAL| MM Potential file name                                     MM_POTENTIAL
 GLOBAL| Coordinate file name                                      __STD_INPUT__
 GLOBAL| Method name                                                        CP2K
 GLOBAL| Project name                                                       MoS2
 GLOBAL| Run type                                                         ENERGY
 GLOBAL| FFT library                                                       FFTW3
 GLOBAL| Diagonalization library                                            ELPA
 GLOBAL| DGEMM library                                                      BLAS
 GLOBAL| Minimum number of eigenvectors for ELPA usage                        16
 GLOBAL| Orthonormality check for eigenvectors                          DISABLED
 GLOBAL| Matrix multiplication library                                     COSMA
 GLOBAL| All-to-all communication in single precision                          F
 GLOBAL| FFTs using library dependent lengths                                  F
 GLOBAL| Grid backend                                                       AUTO
 GLOBAL| Global print level                                               MEDIUM
 GLOBAL| MPI I/O enabled                                                       T
 GLOBAL| Total number of message passing processes                           192
 GLOBAL| Number of threads for this process                                    4
 GLOBAL| This output is from process                                           0
 GLOBAL| OpenMP stack size per thread (OMP_STACKSIZE)                    default
 GLOBAL| CPU model name                          AMD EPYC 7763 64-Core Processor
 GLOBAL| CPUID                                                              1002

 MEMORY| system memory details [Kb]
 MEMORY|                        rank 0           min           max       average
 MEMORY| MemTotal            263899264     263899260     263899264     263899262
 MEMORY| MemFree             241794524     241794524     246200592     243695734
 MEMORY| Buffers                126380        106400        202876        151947
 MEMORY| Cached                7750248       5675984       7855608       6815459
 MEMORY| Slab                  2865580       1663584       2865580       2181148
 MEMORY| SReclaimable          1011388        310936       1011388        476673
 MEMORY| MemLikelyFree       250682540     250682540     252350356     251139814


 *** Fundamental physical constants (SI units) ***

 *** Literature: B. J. Mohr and B. N. Taylor,
 ***             CODATA recommended values of the fundamental physical
 ***             constants: 2006, Web Version 5.1
 ***             http://physics.nist.gov/constants

 Speed of light in vacuum [m/s]                             2.99792458000000E+08
 Magnetic constant or permeability of vacuum [N/A**2]       1.25663706143592E-06
 Electric constant or permittivity of vacuum [F/m]          8.85418781762039E-12
 Planck constant (h) [J*s]                                  6.62606896000000E-34
 Planck constant (h-bar) [J*s]                              1.05457162825177E-34
 Elementary charge [C]                                      1.60217648700000E-19
 Electron mass [kg]                                         9.10938215000000E-31
 Electron g factor [ ]                                     -2.00231930436220E+00
 Proton mass [kg]                                           1.67262163700000E-27
 Fine-structure constant                                    7.29735253760000E-03
 Rydberg constant [1/m]                                     1.09737315685270E+07
 Avogadro constant [1/mol]                                  6.02214179000000E+23
 Boltzmann constant [J/K]                                   1.38065040000000E-23
 Atomic mass unit [kg]                                      1.66053878200000E-27
 Bohr radius [m]                                            5.29177208590000E-11

 *** Conversion factors ***

 [u] -> [a.u.]                                              1.82288848426455E+03
 [Angstrom] -> [Bohr] = [a.u.]                              1.88972613288564E+00
 [a.u.] = [Bohr] -> [Angstrom]                              5.29177208590000E-01
 [a.u.] -> [s]                                              2.41888432650478E-17
 [a.u.] -> [fs]                                             2.41888432650478E-02
 [a.u.] -> [J]                                              4.35974393937059E-18
 [a.u.] -> [N]                                              8.23872205491840E-08
 [a.u.] -> [K]                                              3.15774647902944E+05
 [a.u.] -> [kJ/mol]                                         2.62549961709828E+03
 [a.u.] -> [kcal/mol]                                       6.27509468713739E+02
 [a.u.] -> [Pa]                                             2.94210107994716E+13
 [a.u.] -> [bar]                                            2.94210107994716E+08
 [a.u.] -> [atm]                                            2.90362800883016E+08
 [a.u.] -> [eV]                                             2.72113838565563E+01
 [a.u.] -> [Hz]                                             6.57968392072181E+15
 [a.u.] -> [1/cm] (wave numbers)                            2.19474631370540E+05
 [a.u./Bohr**2] -> [1/cm]                                   5.14048714338585E+03
 

 CELL_TOP| Volume [angstrom^3]:                                     27000.000000
 CELL_TOP| Vector a [angstrom    30.000     0.000     0.000   |a| =    30.000000
 CELL_TOP| Vector b [angstrom     0.000    30.000     0.000   |b| =    30.000000
 CELL_TOP| Vector c [angstrom     0.000     0.000    30.000   |c| =    30.000000
 CELL_TOP| Angle (b,c), alpha [degree]:                                90.000000
 CELL_TOP| Angle (a,c), beta  [degree]:                                90.000000
 CELL_TOP| Angle (a,b), gamma [degree]:                                90.000000
 CELL_TOP| Numerically orthorhombic:                                         YES
 CELL_TOP| Periodicity                                                      NONE

 GENERATE|  Preliminary Number of Bonds generated:                             0
 GENERATE|  Achieved consistency in connectivity generation.

 CELL| Volume [angstrom^3]:                                         27000.000000
 CELL| Vector a [angstrom]:      30.000     0.000     0.000   |a| =    30.000000
 CELL| Vector b [angstrom]:       0.000    30.000     0.000   |b| =    30.000000
 CELL| Vector c [angstrom]:       0.000     0.000    30.000   |c| =    30.000000
 CELL| Angle (b,c), alpha [degree]:                                    90.000000
 CELL| Angle (a,c), beta  [degree]:                                    90.000000
 CELL| Angle (a,b), gamma [degree]:                                    90.000000
 CELL| Numerically orthorhombic:                                             YES
 CELL| Periodicity                                                          NONE

 CELL_REF| Volume [angstrom^3]:                                     27000.000000
 CELL_REF| Vector a [angstrom    30.000     0.000     0.000   |a| =    30.000000
 CELL_REF| Vector b [angstrom     0.000    30.000     0.000   |b| =    30.000000
 CELL_REF| Vector c [angstrom     0.000     0.000    30.000   |c| =    30.000000
 CELL_REF| Angle (b,c), alpha [degree]:                                90.000000
 CELL_REF| Angle (a,c), beta  [degree]:                                90.000000
 CELL_REF| Angle (a,b), gamma [degree]:                                90.000000
 CELL_REF| Numerically orthorhombic:                                         YES
 CELL_REF| Periodicity                                                      NONE

 *******************************************************************************
 *******************************************************************************
 **                                                                           **
 **     #####                         ##              ##                      **
 **    ##   ##            ##          ##              ##                      **
 **   ##     ##                       ##            ######                    **
 **   ##     ##  ##   ##  ##   #####  ##  ##   ####   ##    #####    #####    **
 **   ##     ##  ##   ##  ##  ##      ## ##   ##      ##   ##   ##  ##   ##   **
 **   ##  ## ##  ##   ##  ##  ##      ####     ###    ##   ######   ######    **
 **    ##  ###   ##   ##  ##  ##      ## ##      ##   ##   ##       ##        **
 **     #######   #####   ##   #####  ##  ##  ####    ##    #####   ##        **
 **           ##                                                    ##        **
 **                                                                           **
 **                                                ... make the atoms dance   **
 **                                                                           **
 **            Copyright (C) by CP2K developers group (2000-2025)             **
 **                      J. Chem. Phys. 152, 194103 (2020)                    **
 **                                                                           **
 *******************************************************************************

 DFT| Spin restricted Kohn-Sham (RKS) calculation                            RKS
 DFT| Multiplicity                                                             1
 DFT| Number of spin states                                                    1
 DFT| Charge                                                                   0
 DFT| Self-interaction correction (SIC)                                       NO
 DFT| Cutoffs: density                                              1.000000E-10
 DFT|          gradient                                             1.000000E-10
 DFT|          tau                                                  1.000000E-10
 DFT|          cutoff_smoothing_range                               0.000000E+00
 DFT| XC density smoothing                                                  NONE
 DFT| XC derivatives                                                          PW

 FUNCTIONAL| PBE:
 FUNCTIONAL| J.P.Perdew, K.Burke, M.Ernzerhof, Phys. Rev. Letter, vol. 77, n 18,
 FUNCTIONAL|  pp. 3865-3868, (1996)sx=0.750sc=1.000{spin unpolarized}           


 QS| Method:                                                                GAPW
 QS| Density plane wave grid type                        NON-SPHERICAL FULLSPACE
 QS| Number of grid levels:                                                    4
 QS| Density cutoff [a.u.]:                                                250.0
 QS| Multi grid cutoff [a.u.]: 1) grid level                               250.0
 QS|                           2) grid level                                83.3
 QS|                           3) grid level                                27.8
 QS|                           4) grid level                                 9.3
 QS| Grid level progression factor:                                          3.0
 QS| Relative density cutoff [a.u.]:                                        50.0
 QS| Interaction thresholds: eps_pgf_orb:                                1.0E-12
 QS|                         eps_filter_matrix:                          0.0E+00
 QS|                         eps_core_charge:                            1.0E-14
 QS|                         eps_rho_gspace:                             1.0E-12
 QS|                         eps_rho_rspace:                             1.0E-12
 QS|                         eps_gvg_rspace:                             1.0E-06
 QS|                         eps_ppl:                                    1.0E-02
 QS|                         eps_ppnl:                                   1.0E-08
 QS| GAPW|      One center basis from orbital basis primitives
 QS| GAPW|                   eps_fit:                                    1.0E-04
 QS| GAPW|                   eps_iso:                                    1.0E-12
 QS| GAPW|                   eps_svd:                                    1.0E-08
 QS| GAPW|                   eps_cpc:                                    1.0E-12
 QS| GAPW|   atom-r-grid: quadrature:                                     GC_LOG
 QS| GAPW|      atom-s-grid:  max l :                                          6
 QS| GAPW|      max_l_rho0 :                                                   2


 ATOMIC KIND INFORMATION

  1. Atomic kind: C                                     Number of atoms:       7

     Orbital Basis Set                                        aug-DZVP-MOLOPT-ae

       Number of orbital shell sets:                                           2
       Number of orbital shells:                                              10
       Number of primitive Cartesian functions:                               13
       Number of Cartesian basis functions:                                   35
       Number of spherical basis functions:                                   30
       Norm type:                                                              2

       Normalised Cartesian orbitals:

                        Set   Shell   Orbital            Exponent    Coefficient

                          1       1    2px               0.050000       0.000000
                                                         0.096935       0.005344
                                                         0.300899       0.144116
                                                         0.937529       0.673511
                                                         4.145546       1.425967
                          1       1    2py               0.050000       0.000000
                                                         0.096935       0.005344
                                                         0.300899       0.144116
                                                         0.937529       0.673511
                                                         4.145546       1.425967
                          1       1    2pz               0.050000       0.000000
                                                         0.096935       0.005344
                                                         0.300899       0.144116
                                                         0.937529       0.673511
                                                         4.145546       1.425967

                          1       2    3px               0.050000       0.000000
                                                         0.096935       0.066903
                                                         0.300899       0.082631
                                                         0.937529      -0.414500
                                                         4.145546      -0.833488
                          1       2    3py               0.050000       0.000000
                                                         0.096935       0.066903
                                                         0.300899       0.082631
                                                         0.937529      -0.414500
                                                         4.145546      -0.833488
                          1       2    3pz               0.050000       0.000000
                                                         0.096935       0.066903
                                                         0.300899       0.082631
                                                         0.937529      -0.414500
                                                         4.145546      -0.833488

                          1       3    4px               0.050000       0.052477
                                                         0.096935      -0.149600
                                                         0.300899      -0.031452
                                                         0.937529       0.106528
                                                         4.145546       0.000000
                          1       3    4py               0.050000       0.052477
                                                         0.096935      -0.149600
                                                         0.300899      -0.031452
                                                         0.937529       0.106528
                                                         4.145546       0.000000
                          1       3    4pz               0.050000       0.052477
                                                         0.096935      -0.149600
                                                         0.300899      -0.031452
                                                         0.937529       0.106528
                                                         4.145546       0.000000

                          1       4    3dx2              0.050000       0.000000
                                                         0.096935       0.001258
                                                         0.300899       0.105504
                                                         0.937529       0.830801
                                                         4.145546       0.718979
                          1       4    3dxy              0.050000       0.000000
                                                         0.096935       0.002179
                                                         0.300899       0.182739
                                                         0.937529       1.438990
                                                         4.145546       1.245309
                          1       4    3dxz              0.050000       0.000000
                                                         0.096935       0.002179
                                                         0.300899       0.182739
                                                         0.937529       1.438990
                                                         4.145546       1.245309
                          1       4    3dy2              0.050000       0.000000
                                                         0.096935       0.001258
                                                         0.300899       0.105504
                                                         0.937529       0.830801
                                                         4.145546       0.718979
                          1       4    3dyz              0.050000       0.000000
                                                         0.096935       0.002179
                                                         0.300899       0.182739
                                                         0.937529       1.438990
                                                         4.145546       1.245309
                          1       4    3dz2              0.050000       0.000000
                                                         0.096935       0.001258
                                                         0.300899       0.105504
                                                         0.937529       0.830801
                                                         4.145546       0.718979

                          1       5    4dx2              0.050000      -0.011665
                                                         0.096935       0.057456
                                                         0.300899      -0.258169
                                                         0.937529       0.000000
                                                         4.145546       0.000000
                          1       5    4dxy              0.050000      -0.020204
                                                         0.096935       0.099516
                                                         0.300899      -0.447162
                                                         0.937529       0.000000
                                                         4.145546       0.000000
                          1       5    4dxz              0.050000      -0.020204
                                                         0.096935       0.099516
                                                         0.300899      -0.447162
                                                         0.937529       0.000000
                                                         4.145546       0.000000
                          1       5    4dy2              0.050000      -0.011665
                                                         0.096935       0.057456
                                                         0.300899      -0.258169
                                                         0.937529       0.000000
                                                         4.145546       0.000000
                          1       5    4dyz              0.050000      -0.020204
                                                         0.096935       0.099516
                                                         0.300899      -0.447162
                                                         0.937529       0.000000
                                                         4.145546       0.000000
                          1       5    4dz2              0.050000      -0.011665
                                                         0.096935       0.057456
                                                         0.300899      -0.258169
                                                         0.937529       0.000000
                                                         4.145546       0.000000

                          1       6    4fx3              0.050000      -0.000180
                                                         0.096935       0.008160
                                                         0.300899       0.004002
                                                         0.937529       0.000000
                                                         4.145546       0.000000
                          1       6    4fx2y             0.050000      -0.000402
                                                         0.096935       0.018246
                                                         0.300899       0.008949
                                                         0.937529       0.000000
                                                         4.145546       0.000000
                          1       6    4fx2z             0.050000      -0.000402
                                                         0.096935       0.018246
                                                         0.300899       0.008949
                                                         0.937529       0.000000
                                                         4.145546       0.000000
                          1       6    4fxy2             0.050000      -0.000402
                                                         0.096935       0.018246
                                                         0.300899       0.008949
                                                         0.937529       0.000000
                                                         4.145546       0.000000
                          1       6    4fxyz             0.050000      -0.000696
                                                         0.096935       0.031603
                                                         0.300899       0.015500
                                                         0.937529       0.000000
                                                         4.145546       0.000000
                          1       6    4fxz2             0.050000      -0.000402
                                                         0.096935       0.018246
                                                         0.300899       0.008949
                                                         0.937529       0.000000
                                                         4.145546       0.000000
                          1       6    4fy3              0.050000      -0.000180
                                                         0.096935       0.008160
                                                         0.300899       0.004002
                                                         0.937529       0.000000
                                                         4.145546       0.000000
                          1       6    4fy2z             0.050000      -0.000402
                                                         0.096935       0.018246
                                                         0.300899       0.008949
                                                         0.937529       0.000000
                                                         4.145546       0.000000
                          1       6    4fyz2             0.050000      -0.000402
                                                         0.096935       0.018246
                                                         0.300899       0.008949
                                                         0.937529       0.000000
                                                         4.145546       0.000000
                          1       6    4fz3              0.050000      -0.000180
                                                         0.096935       0.008160
                                                         0.300899       0.004002
                                                         0.937529       0.000000
                                                         4.145546       0.000000

                          2       1    1s                0.060000       0.000000
                                                         0.161278       0.024253
                                                         0.523772      -0.029268
                                                         3.176528       0.666384
                                                        10.501907       2.110671
                                                        40.805234       2.242010
                                                       186.270922       1.801845
                                                      1238.394264      -0.490536

                          2       2    2s                0.060000       0.000000
                                                         0.161278       0.080328
                                                         0.523772       0.279468
                                                         3.176528      -0.079506
                                                        10.501907      -0.033488
                                                        40.805234       0.350132
                                                       186.270922      -0.108171
                                                      1238.394264       0.147138

                          2       3    3s                0.060000       0.000000
                                                         0.161278       0.225687
                                                         0.523772      -0.382710
                                                         3.176528      -0.308205
                                                        10.501907      -0.974990
                                                        40.805234      -2.174132
                                                       186.270922       1.755878
                                                      1238.394264     -12.484315

                          2       4    4s                0.060000      -0.055653
                                                         0.161278      -0.019607
                                                         0.523772       0.500289
                                                         3.176528       0.067234
                                                        10.501907       0.000000
                                                        40.805234       0.000000
                                                       186.270922       0.000000
                                                      1238.394264       0.000000

     RI Auxiliary Basis Set             RI_aug-DZVP-MOLOPT-ae_N_RI_102_s_p_d_f_g

       Number of orbital shell sets:                                          24
       Number of orbital shells:                                              24
       Number of primitive Cartesian functions:                               24
       Number of Cartesian basis functions:                                  137
       Number of spherical basis functions:                                  102
       Norm type:                                                              2

       Normalised Cartesian orbitals:

                        Set   Shell   Orbital            Exponent    Coefficient

                          1       1    1s                0.176773       0.194299

                          2       1    8px               0.196807       0.186849
                          2       1    8py               0.196807       0.186849
                          2       1    8pz               0.196807       0.186849

                          3       1   18fx3              0.238963       0.058776
                          3       1   18fx2y             0.238963       0.131427
                          3       1   18fx2z             0.238963       0.131427
                          3       1   18fxy2             0.238963       0.131427
                          3       1   18fxyz             0.238963       0.227638
                          3       1   18fxz2             0.238963       0.131427
                          3       1   18fy3              0.238963       0.058776
                          3       1   18fy2z             0.238963       0.131427
                          3       1   18fyz2             0.238963       0.131427
                          3       1   18fz3              0.238963       0.058776

                          4       1    2s                0.282769       0.276365

                          5       1   13dx2              0.310173       0.212186
                          5       1   13dxy              0.310173       0.367516
                          5       1   13dxz              0.310173       0.367516
                          5       1   13dy2              0.310173       0.212186
                          5       1   13dyz              0.310173       0.367516
                          5       1   13dz2              0.310173       0.212186

                          6       1   22gx4              0.415454       0.099397
                          6       1   22gx3y             0.415454       0.262980
                          6       1   22gx3z             0.415454       0.262980
                          6       1   22gx2y2            0.415454       0.339506
                          6       1   22gx2yz            0.415454       0.588042
                          6       1   22gx2z2            0.415454       0.339506
                          6       1   22gxy3             0.415454       0.262980
                          6       1   22gxy2z            0.415454       0.588042
                          6       1   22gxyz2            0.415454       0.588042
                          6       1   22gxz3             0.415454       0.262980
                          6       1   22gy4              0.415454       0.099397
                          6       1   22gy3z             0.415454       0.262980
                          6       1   22gy2z2            0.415454       0.339506
                          6       1   22gyz3             0.415454       0.262980
                          6       1   22gz4              0.415454       0.099397

                          7       1   14dx2              0.475521       0.448184
                          7       1   14dxy              0.475521       0.776278
                          7       1   14dxz              0.475521       0.776278
                          7       1   14dy2              0.475521       0.448184
                          7       1   14dyz              0.475521       0.776278
                          7       1   14dz2              0.475521       0.448184

                          8       1    9px               0.478157       0.566765
                          8       1    9py               0.478157       0.566765
                          8       1    9pz               0.478157       0.566765

                          9       1   19fx3              0.615924       0.494755
                          9       1   19fx2y             0.615924       1.106306
                          9       1   19fx2z             0.615924       1.106306
                          9       1   19fxy2             0.615924       1.106306
                          9       1   19fxyz             0.615924       1.916178
                          9       1   19fxz2             0.615924       1.106306
                          9       1   19fy3              0.615924       0.494755
                          9       1   19fy2z             0.615924       1.106306
                          9       1   19fyz2             0.615924       1.106306
                          9       1   19fz3              0.615924       0.494755

                         10       1   23gx4              0.774118       0.550370
                         10       1   23gx3y             0.774118       1.456141
                         10       1   23gx3z             0.774118       1.456141
                         10       1   23gx2y2            0.774118       1.879871
                         10       1   23gx2yz            0.774118       3.256031
                         10       1   23gx2z2            0.774118       1.879871
                         10       1   23gxy3             0.774118       1.456141
                         10       1   23gxy2z            0.774118       3.256031
                         10       1   23gxyz2            0.774118       3.256031
                         10       1   23gxz3             0.774118       1.456141
                         10       1   23gy4              0.774118       0.550370
                         10       1   23gy3z             0.774118       1.456141
                         10       1   23gy2z2            0.774118       1.879871
                         10       1   23gyz3             0.774118       1.456141
                         10       1   23gz4              0.774118       0.550370

                         11       1    3s                0.856620       0.634602

                         12       1   15dx2              0.960745       1.534525
                         12       1   15dxy              0.960745       2.657876
                         12       1   15dxz              0.960745       2.657876
                         12       1   15dy2              0.960745       1.534525
                         12       1   15dyz              0.960745       2.657876
                         12       1   15dz2              0.960745       1.534525

                         13       1   10px               1.162821       1.721200
                         13       1   10py               1.162821       1.721200
                         13       1   10pz               1.162821       1.721200

                         14       1   20fx3              1.214659       2.280218
                         14       1   20fx2y             1.214659       5.098724
                         14       1   20fx2z             1.214659       5.098724
                         14       1   20fxy2             1.214659       5.098724
                         14       1   20fxyz             1.214659       8.831248
                         14       1   20fxz2             1.214659       5.098724
                         14       1   20fy3              1.214659       2.280218
                         14       1   20fy2z             1.214659       5.098724
                         14       1   20fyz2             1.214659       5.098724
                         14       1   20fz3              1.214659       2.280218

                         15       1   24gx4              1.356232       2.572490
                         15       1   24gx3y             1.356232       6.806169
                         15       1   24gx3z             1.356232       6.806169
                         15       1   24gx2y2            1.356232       8.786727
                         15       1   24gx2yz            1.356232      15.219057
                         15       1   24gx2z2            1.356232       8.786727
                         15       1   24gxy3             1.356232       6.806169
                         15       1   24gxy2z            1.356232      15.219057
                         15       1   24gxyz2            1.356232      15.219057
                         15       1   24gxz3             1.356232       6.806169
                         15       1   24gy4              1.356232       2.572490
                         15       1   24gy3z             1.356232       6.806169
                         15       1   24gy2z2            1.356232       8.786727
                         15       1   24gyz3             1.356232       6.806169
                         15       1   24gz4              1.356232       2.572490

                         16       1   16dx2              1.921522       5.161655
                         16       1   16dxy              1.921522       8.940249
                         16       1   16dxz              1.921522       8.940249
                         16       1   16dy2              1.921522       5.161655
                         16       1   16dyz              1.921522       8.940249
                         16       1   16dz2              1.921522       5.161655

                         17       1   21fx3              2.377719      10.335118
                         17       1   21fx2y             2.377719      23.110027
                         17       1   21fx2z             2.377719      23.110027
                         17       1   21fxy2             2.377719      23.110027
                         17       1   21fxyz             2.377719      40.027741
                         17       1   21fxz2             2.377719      23.110027
                         17       1   21fy3              2.377719      10.335118
                         17       1   21fy2z             2.377719      23.110027
                         17       1   21fyz2             2.377719      23.110027
                         17       1   21fz3              2.377719      10.335118

                         18       1    4s                2.987161       1.619400

                         19       1   17dx2              4.345203      21.524201
                         19       1   17dxy              4.345203      37.281010
                         19       1   17dxz              4.345203      37.281010
                         19       1   17dy2              4.345203      21.524201
                         19       1   17dyz              4.345203      37.281010
                         19       1   17dz2              4.345203      21.524201

                         20       1   11px               4.473684       9.274098
                         20       1   11py               4.473684       9.274098
                         20       1   11pz               4.473684       9.274098

                         21       1    5s                9.158863       3.752246

                         22       1   12px              16.195512      46.310923
                         22       1   12py              16.195512      46.310923
                         22       1   12pz              16.195512      46.310923

                         23       1    6s               27.492688       8.557029

                         24       1    7s               82.168156      19.450813

       Atomic covalent radius [Angstrom]:                                  0.770

       Atomic van der Waals radius [Angstrom]:                             1.700

     The atoms of this atomic kind are PAW atoms (GAPW):
       Hard Gaussian function radius:                                      1.512
       Rho0 radius:                                                        1.512
       Maximum GTO radius used for PAW projector construction:            24.566

     GAPW Soft Basis Set                                 aug-DZVP-MOLOPT-ae_soft

       Number of orbital shell sets:                                           2
       Number of orbital shells:                                              10
       Number of primitive Cartesian functions:                                9
       Number of Cartesian basis functions:                                   35
       Number of spherical basis functions:                                   30
       Norm type:                                                              2

       Normalised Cartesian orbitals:

                        Set   Shell   Orbital            Exponent    Coefficient

                          1       1    2px               0.050000       0.000000
                                                         0.096935       0.005344
                                                         0.300899       0.144116
                                                         0.937529       0.673511
                                                         4.145546       1.425967
                          1       1    2py               0.050000       0.000000
                                                         0.096935       0.005344
                                                         0.300899       0.144116
                                                         0.937529       0.673511
                                                         4.145546       1.425967
                          1       1    2pz               0.050000       0.000000
                                                         0.096935       0.005344
                                                         0.300899       0.144116
                                                         0.937529       0.673511
                                                         4.145546       1.425967

                          1       2    3px               0.050000       0.000000
                                                         0.096935       0.066903
                                                         0.300899       0.082631
                                                         0.937529      -0.414500
                                                         4.145546      -0.833488
                          1       2    3py               0.050000       0.000000
                                                         0.096935       0.066903
                                                         0.300899       0.082631
                                                         0.937529      -0.414500
                                                         4.145546      -0.833488
                          1       2    3pz               0.050000       0.000000
                                                         0.096935       0.066903
                                                         0.300899       0.082631
                                                         0.937529      -0.414500
                                                         4.145546      -0.833488

                          1       3    4px               0.050000       0.052477
                                                         0.096935      -0.149600
                                                         0.300899      -0.031452
                                                         0.937529       0.106528
                                                         4.145546       0.000000
                          1       3    4py               0.050000       0.052477
                                                         0.096935      -0.149600
                                                         0.300899      -0.031452
                                                         0.937529       0.106528
                                                         4.145546       0.000000
                          1       3    4pz               0.050000       0.052477
                                                         0.096935      -0.149600
                                                         0.300899      -0.031452
                                                         0.937529       0.106528
                                                         4.145546       0.000000

                          1       4    3dx2              0.050000       0.000000
                                                         0.096935       0.001258
                                                         0.300899       0.105504
                                                         0.937529       0.830801
                                                         4.145546       0.718979
                          1       4    3dxy              0.050000       0.000000
                                                         0.096935       0.002179
                                                         0.300899       0.182739
                                                         0.937529       1.438990
                                                         4.145546       1.245309
                          1       4    3dxz              0.050000       0.000000
                                                         0.096935       0.002179
                                                         0.300899       0.182739
                                                         0.937529       1.438990
                                                         4.145546       1.245309
                          1       4    3dy2              0.050000       0.000000
                                                         0.096935       0.001258
                                                         0.300899       0.105504
                                                         0.937529       0.830801
                                                         4.145546       0.718979
                          1       4    3dyz              0.050000       0.000000
                                                         0.096935       0.002179
                                                         0.300899       0.182739
                                                         0.937529       1.438990
                                                         4.145546       1.245309
                          1       4    3dz2              0.050000       0.000000
                                                         0.096935       0.001258
                                                         0.300899       0.105504
                                                         0.937529       0.830801
                                                         4.145546       0.718979

                          1       5    4dx2              0.050000      -0.011665
                                                         0.096935       0.057456
                                                         0.300899      -0.258169
                                                         0.937529       0.000000
                                                         4.145546       0.000000
                          1       5    4dxy              0.050000      -0.020204
                                                         0.096935       0.099516
                                                         0.300899      -0.447162
                                                         0.937529       0.000000
                                                         4.145546       0.000000
                          1       5    4dxz              0.050000      -0.020204
                                                         0.096935       0.099516
                                                         0.300899      -0.447162
                                                         0.937529       0.000000
                                                         4.145546       0.000000
                          1       5    4dy2              0.050000      -0.011665
                                                         0.096935       0.057456
                                                         0.300899      -0.258169
                                                         0.937529       0.000000
                                                         4.145546       0.000000
                          1       5    4dyz              0.050000      -0.020204
                                                         0.096935       0.099516
                                                         0.300899      -0.447162
                                                         0.937529       0.000000
                                                         4.145546       0.000000
                          1       5    4dz2              0.050000      -0.011665
                                                         0.096935       0.057456
                                                         0.300899      -0.258169
                                                         0.937529       0.000000
                                                         4.145546       0.000000

                          1       6    4fx3              0.050000      -0.000180
                                                         0.096935       0.008160
                                                         0.300899       0.004002
                                                         0.937529       0.000000
                                                         4.145546       0.000000
                          1       6    4fx2y             0.050000      -0.000402
                                                         0.096935       0.018246
                                                         0.300899       0.008949
                                                         0.937529       0.000000
                                                         4.145546       0.000000
                          1       6    4fx2z             0.050000      -0.000402
                                                         0.096935       0.018246
                                                         0.300899       0.008949
                                                         0.937529       0.000000
                                                         4.145546       0.000000
                          1       6    4fxy2             0.050000      -0.000402
                                                         0.096935       0.018246
                                                         0.300899       0.008949
                                                         0.937529       0.000000
                                                         4.145546       0.000000
                          1       6    4fxyz             0.050000      -0.000696
                                                         0.096935       0.031603
                                                         0.300899       0.015500
                                                         0.937529       0.000000
                                                         4.145546       0.000000
                          1       6    4fxz2             0.050000      -0.000402
                                                         0.096935       0.018246
                                                         0.300899       0.008949
                                                         0.937529       0.000000
                                                         4.145546       0.000000
                          1       6    4fy3              0.050000      -0.000180
                                                         0.096935       0.008160
                                                         0.300899       0.004002
                                                         0.937529       0.000000
                                                         4.145546       0.000000
                          1       6    4fy2z             0.050000      -0.000402
                                                         0.096935       0.018246
                                                         0.300899       0.008949
                                                         0.937529       0.000000
                                                         4.145546       0.000000
                          1       6    4fyz2             0.050000      -0.000402
                                                         0.096935       0.018246
                                                         0.300899       0.008949
                                                         0.937529       0.000000
                                                         4.145546       0.000000
                          1       6    4fz3              0.050000      -0.000180
                                                         0.096935       0.008160
                                                         0.300899       0.004002
                                                         0.937529       0.000000
                                                         4.145546       0.000000

                          2       1    1s                0.060000       0.000000
                                                         0.161278       0.024253
                                                         0.523772      -0.029268
                                                         3.176528       0.666384

                          2       2    2s                0.060000       0.000000
                                                         0.161278       0.080328
                                                         0.523772       0.279468
                                                         3.176528      -0.079506

                          2       3    3s                0.060000       0.000000
                                                         0.161278       0.225687
                                                         0.523772      -0.382710
                                                         3.176528      -0.308205

                          2       4    4s                0.060000      -0.055653
                                                         0.161278      -0.019607
                                                         0.523772       0.500289
                                                         3.176528       0.067234

     AE Potential information for                                            ALL

       Description:                                       All-electron potential
                                          Krack, Parrinello, PCCP 2, 2105 (2000)

       Gaussian exponent of the core charge distribution:               4.109048
       Electronic configuration (s p d ...):                           4   2   0

  2. Atomic kind: H                                     Number of atoms:       5

     Orbital Basis Set                                        aug-DZVP-MOLOPT-ae

       Number of orbital shell sets:                                           1
       Number of orbital shells:                                               5
       Number of primitive Cartesian functions:                                5
       Number of Cartesian basis functions:                                    9
       Number of spherical basis functions:                                    9
       Norm type:                                                              2

       Normalised Cartesian orbitals:

                        Set   Shell   Orbital            Exponent    Coefficient

                          1       1    2s                0.035000       0.000000
                                                         0.111920       0.009149
                                                         0.374948       0.205449
                                                         1.446686       0.373852
                                                        12.248855       0.310040

                          1       2    3s                0.035000       0.000000
                                                         0.111920       0.143650
                                                         0.374948       0.007287
                                                         1.446686      -0.188851
                                                        12.248855      -0.144753

                          1       3    4s                0.035000       0.090463
                                                         0.111920      -0.203934
                                                         0.374948      -0.000376
                                                         1.446686      -0.000051
                                                        12.248855       0.000000

                          1       4    3px               0.035000       0.000000
                                                         0.111920       0.007225
                                                         0.374948       0.280770
                                                         1.446686       0.896497
                                                        12.248855      -0.764411
                          1       4    3py               0.035000       0.000000
                                                         0.111920       0.007225
                                                         0.374948       0.280770
                                                         1.446686       0.896497
                                                        12.248855      -0.764411
                          1       4    3pz               0.035000       0.000000
                                                         0.111920       0.007225
                                                         0.374948       0.280770
                                                         1.446686       0.896497
                                                        12.248855      -0.764411

                          1       5    4px               0.035000       0.011331
                                                         0.111920       0.048737
                                                         0.374948       0.028490
                                                         1.446686       0.035587
                                                        12.248855       0.000000
                          1       5    4py               0.035000       0.011331
                                                         0.111920       0.048737
                                                         0.374948       0.028490
                                                         1.446686       0.035587
                                                        12.248855       0.000000
                          1       5    4pz               0.035000       0.011331
                                                         0.111920       0.048737
                                                         0.374948       0.028490
                                                         1.446686       0.035587
                                                        12.248855       0.000000

     RI Auxiliary Basis Set             RI_aug-DZVP-MOLOPT-ae_N_RI_047_s_p_d_f_g

       Number of orbital shell sets:                                          17
       Number of orbital shells:                                              17
       Number of primitive Cartesian functions:                               17
       Number of Cartesian basis functions:                                   53
       Number of spherical basis functions:                                   47
       Norm type:                                                              2

       Normalised Cartesian orbitals:

                        Set   Shell   Orbital            Exponent    Coefficient

                          1       1    1s                0.236911       0.242019

                          2       1    8px               0.347892       0.380843
                          2       1    8py               0.347892       0.380843
                          2       1    8pz               0.347892       0.380843

                          3       1    2s                0.423897       0.374417

                          4       1    9px               0.493166       0.589089
                          4       1    9py               0.493166       0.589089
                          4       1    9pz               0.493166       0.589089

                          5       1   14dx2              0.625366       0.723843
                          5       1   14dxy              0.625366       1.253733
                          5       1   14dxz              0.625366       1.253733
                          5       1   14dy2              0.625366       0.723843
                          5       1   14dyz              0.625366       1.253733
                          5       1   14dz2              0.625366       0.723843

                          6       1   10px               0.699103       0.911206
                          6       1   10py               0.699103       0.911206
                          6       1   10pz               0.699103       0.911206

                          7       1    3s                0.758464       0.579244

                          8       1   15dx2              0.896802       1.360281
                          8       1   15dxy              0.896802       2.356075
                          8       1   15dxz              0.896802       2.356075
                          8       1   15dy2              0.896802       1.360281
                          8       1   15dyz              0.896802       2.356075
                          8       1   15dz2              0.896802       1.360281

                          9       1   11px               0.991036       1.409457
                          9       1   11py               0.991036       1.409457
                          9       1   11pz               0.991036       1.409457

                         10       1   17fx3              1.198110       2.210915
                         10       1   17fx2y             1.198110       4.943756
                         10       1   17fx2z             1.198110       4.943756
                         10       1   17fxy2             1.198110       4.943756
                         10       1   17fxyz             1.198110       8.562836
                         10       1   17fxz2             1.198110       4.943756
                         10       1   17fy3              1.198110       2.210915
                         10       1   17fy2z             1.198110       4.943756
                         10       1   17fyz2             1.198110       4.943756
                         10       1   17fz3              1.198110       2.210915

                         11       1   16dx2              1.286053       2.556305
                         11       1   16dxy              1.286053       4.427650
                         11       1   16dxz              1.286053       4.427650
                         11       1   16dy2              1.286053       2.556305
                         11       1   16dyz              1.286053       4.427650
                         11       1   16dz2              1.286053       2.556305

                         12       1    4s                1.357095       0.896123

                         13       1   12px               1.404875       2.180155
                         13       1   12py               1.404875       2.180155
                         13       1   12pz               1.404875       2.180155

                         14       1   13px               1.991527       3.372273
                         14       1   13py               1.991527       3.372273
                         14       1   13pz               1.991527       3.372273

                         15       1    5s                2.428204       1.386354

                         16       1    6s                4.344704       2.144768

                         17       1    7s                7.773833       3.318077

       Atomic covalent radius [Angstrom]:                                  0.320

       Atomic van der Waals radius [Angstrom]:                             1.090

     The atoms of this atomic kind are PAW atoms (GAPW):
       Hard Gaussian function radius:                                      1.200
       Rho0 radius:                                                        1.200
       Maximum GTO radius used for PAW projector construction:            24.566

     GAPW Soft Basis Set                                 aug-DZVP-MOLOPT-ae_soft

       Number of orbital shell sets:                                           1
       Number of orbital shells:                                               5
       Number of primitive Cartesian functions:                                4
       Number of Cartesian basis functions:                                    9
       Number of spherical basis functions:                                    9
       Norm type:                                                              2

       Normalised Cartesian orbitals:

                        Set   Shell   Orbital            Exponent    Coefficient

                          1       1    2s                0.035000       0.000000
                                                         0.111920       0.009149
                                                         0.374948       0.205449
                                                         1.446686       0.373852

                          1       2    3s                0.035000       0.000000
                                                         0.111920       0.143650
                                                         0.374948       0.007287
                                                         1.446686      -0.188851

                          1       3    4s                0.035000       0.090463
                                                         0.111920      -0.203934
                                                         0.374948      -0.000376
                                                         1.446686      -0.000051

                          1       4    3px               0.035000       0.000000
                                                         0.111920       0.007225
                                                         0.374948       0.280770
                                                         1.446686       0.896497
                          1       4    3py               0.035000       0.000000
                                                         0.111920       0.007225
                                                         0.374948       0.280770
                                                         1.446686       0.896497
                          1       4    3pz               0.035000       0.000000
                                                         0.111920       0.007225
                                                         0.374948       0.280770
                                                         1.446686       0.896497

                          1       5    4px               0.035000       0.011331
                                                         0.111920       0.048737
                                                         0.374948       0.028490
                                                         1.446686       0.035587
                          1       5    4py               0.035000       0.011331
                                                         0.111920       0.048737
                                                         0.374948       0.028490
                                                         1.446686       0.035587
                          1       5    4pz               0.035000       0.011331
                                                         0.111920       0.048737
                                                         0.374948       0.028490
                                                         1.446686       0.035587

     AE Potential information for                                            ALL

       Description:                                       All-electron potential
                                          Krack, Parrinello, PCCP 2, 2105 (2000)

       Gaussian exponent of the core charge distribution:              12.500000
       Electronic configuration (s p d ...):                           1   0   0

  3. Atomic kind: N                                     Number of atoms:       3

     Orbital Basis Set                                        aug-DZVP-MOLOPT-ae

       Number of orbital shell sets:                                           2
       Number of orbital shells:                                              10
       Number of primitive Cartesian functions:                               12
       Number of Cartesian basis functions:                                   35
       Number of spherical basis functions:                                   30
       Norm type:                                                              2

       Normalised Cartesian orbitals:

                        Set   Shell   Orbital            Exponent    Coefficient

                          1       1    2s                0.060000      -0.096639
                                                         0.166384       0.037538
                                                         0.634073      -0.055669
                                                         2.325354       0.000000
                                                        12.268174       0.000000

                          1       2    3px               0.060000       0.000000
                                                         0.166384      -0.031930
                                                         0.634073      -0.492962
                                                         2.325354      -1.380142
                                                        12.268174      -2.349358
                          1       2    3py               0.060000       0.000000
                                                         0.166384      -0.031930
                                                         0.634073      -0.492962
                                                         2.325354      -1.380142
                                                        12.268174      -2.349358
                          1       2    3pz               0.060000       0.000000
                                                         0.166384      -0.031930
                                                         0.634073      -0.492962
                                                         2.325354      -1.380142
                                                        12.268174      -2.349358

                          1       3    4px               0.060000       0.000000
                                                         0.166384       0.169694
                                                         0.634073      -0.220766
                                                         2.325354      -0.809234
                                                        12.268174      -0.998521
                          1       3    4py               0.060000       0.000000
                                                         0.166384       0.169694
                                                         0.634073      -0.220766
                                                         2.325354      -0.809234
                                                        12.268174      -0.998521
                          1       3    4pz               0.060000       0.000000
                                                         0.166384       0.169694
                                                         0.634073      -0.220766
                                                         2.325354      -0.809234
                                                        12.268174      -0.998521

                          1       4    5px               0.060000       0.028594
                                                         0.166384       0.063224
                                                         0.634073      -0.046183
                                                         2.325354       0.000000
                                                        12.268174       0.000000
                          1       4    5py               0.060000       0.028594
                                                         0.166384       0.063224
                                                         0.634073      -0.046183
                                                         2.325354       0.000000
                                                        12.268174       0.000000
                          1       4    5pz               0.060000       0.028594
                                                         0.166384       0.063224
                                                         0.634073      -0.046183
                                                         2.325354       0.000000
                                                        12.268174       0.000000

                          1       5    4dx2              0.060000       0.000000
                                                         0.166384       0.019402
                                                         0.634073       0.555487
                                                         2.325354       1.255926
                                                        12.268174      -0.426175
                          1       5    4dxy              0.060000       0.000000
                                                         0.166384       0.033606
                                                         0.634073       0.962132
                                                         2.325354       2.175327
                                                        12.268174      -0.738157
                          1       5    4dxz              0.060000       0.000000
                                                         0.166384       0.033606
                                                         0.634073       0.962132
                                                         2.325354       2.175327
                                                        12.268174      -0.738157
                          1       5    4dy2              0.060000       0.000000
                                                         0.166384       0.019402
                                                         0.634073       0.555487
                                                         2.325354       1.255926
                                                        12.268174      -0.426175
                          1       5    4dyz              0.060000       0.000000
                                                         0.166384       0.033606
                                                         0.634073       0.962132
                                                         2.325354       2.175327
                                                        12.268174      -0.738157
                          1       5    4dz2              0.060000       0.000000
                                                         0.166384       0.019402
                                                         0.634073       0.555487
                                                         2.325354       1.255926
[...]
 mp_alltoall_d45                     77 10.0    5.141    6.160    5.141    6.160
 transfer_rs2pw_250                 153 10.0    1.570    1.752    5.148    5.712
 fft_wrap_pw1pw2_90                 152 10.5    0.030    0.051    1.914    5.269
 diagonalize_C                        1  8.0    0.000    0.000    5.251    5.258
 cp_fm_power                          2  7.5    0.063    0.072    4.265    4.309
 mp_alltoall_d11v                  1456  9.5    2.860    4.274    2.860    4.274
 calc_screening_functions             1 10.0    3.523    3.649    3.986    4.125
 mp_waitall_1                     73318 12.0    2.533    3.675    2.533    3.675
 mp_sum_dm                         3728  7.6    3.122    3.446    3.122    3.446
 cp2k_distribution_to_z_slices       76  9.0    0.299    0.357    2.487    3.228
 broyden_mixing                      74  6.0    3.014    3.090    3.182    3.209
 rpa_num_int_RPA_matrix_operati     100  7.0    0.001    0.005    3.034    3.038
 calculate_vxc_atom                  76  8.0    0.040    0.335    2.978    2.979
 calc_mat_Q                         100  8.0    0.000    0.000    2.620    2.643
 contract_S_to_Q                    100  9.0    0.001    0.001    2.611    2.635
 gaVxcgb_GC                         300  9.0    0.047    2.479    0.047    2.479
 Vh_1c_gg_integrals                  76  8.0    0.011    0.285    0.846    2.467
 calculate_rho_atom                 304  9.0    0.420    2.463    0.420    2.463
 transfer_pw2rs_90                   76 12.0    0.286    0.362    1.900    2.463
 mp_isend_dm3                      3052 11.5    0.603    2.388    0.603    2.388
 mp_sum_dv                        21328 10.6    2.194    2.339    2.194    2.339
 mp_max_i                           604  2.9    0.754    2.269    0.754    2.269
 pw_poisson_rebuild                  76  9.0    0.000    0.000    2.145    2.250
 ps_wavelet_create                    1 10.0    0.000    0.000    2.145    2.250
 RS_z_slice_distribution              1 11.0    0.192    0.213    2.145    2.250
 qs_scf_new_mos                      75  5.0    0.002    0.007    2.117    2.174
 mp2_ri_gpw_compute_in                1  5.0    0.003    0.005    2.052    2.055
 mp2_ri_gpw_compute_in_loop           1  6.0    0.001    0.009    2.000    2.001
 xc_functional_eval                 675 10.9    0.001    0.002    1.084    1.951
 pbe_lda_eval                       675 11.9    1.083    1.949    1.083    1.949
 pw_integral_ab_c1d_c1d_gs           76  9.0    0.208    0.251    0.849    1.892
 transfer_rs2pw_90                   76  9.0    0.318    0.377    1.564    1.850
 eigensolver_symm                    76  6.0    0.006    0.007    1.813    1.830
 transfer_pw2rs_30                   76 12.0    0.336    0.383    1.490    1.827
 contract_B_L                         4  7.0    0.011    0.022    1.455    1.820
 rs_grid_zero                       382 11.2    1.165    1.564    1.165    1.564
 grid_integrate_task_list            76 10.0    0.135    1.252    0.135    1.252
 pw_derive                          678 11.3    1.130    1.251    1.130    1.251
 rs_gather_matrices                  76 10.0    0.002    0.017    0.510    1.222
 transfer_rs2pw_30                   76  9.0    0.420    0.506    1.066    1.219
 pw_copy                           1135 10.6    1.043    1.218    1.043    1.218
 calculate_rho_atom_coeff            76  6.0    0.060    0.149    1.086    1.098
 mp_sendrecv_dv                   29032 10.0    0.880    1.066    0.880    1.066
 mp2_eri_3c_integrate                 1  7.0    0.003    0.010    0.441    1.030
 integrate_set_3c                  2334  8.0    0.389    0.924    0.438    1.027
 mp_cart_create                     564  9.9    0.658    1.025    0.658    1.025
 dbt_pgrid_create_expert             84 10.8    0.000    0.012    0.634    1.001
 pw_gather_p                        757 11.8    0.804    0.986    0.804    0.986
 pw_scatter_p                       830 12.1    0.896    0.950    0.896    0.950
 powell_optimize                 567018 11.0    0.819    0.911    0.819    0.911
 calc_pair_dist_radii                 1 10.0    0.357    0.474    0.714    0.842
 compute_vec_Sigma_x_minus_vxc_       1  4.0    0.001    0.006    0.813    0.814
 dbt_total                            8  8.0    0.000    0.000    0.790    0.790
 dbt_contract                         4  9.0    0.000    0.000    0.734    0.752
 pw_poisson_set                      77  8.9    0.001    0.002    0.693    0.717
 qs_energies_init_hamiltonians        1  3.0    0.001    0.006    0.697    0.699
 build_core_hamiltonian_matrix        1  4.0    0.000    0.003    0.681    0.681
 overlap_condnum                      1  5.0    0.001    0.002    0.674    0.681
 update_ks_atom                      76  8.0    0.033    0.073    0.585    0.671
 pw_copy_to_array                   757 11.8    0.505    0.655    0.505    0.655
 cp_fm_cholesky_invert              101  8.0    0.623    0.643    0.623    0.643
 mp_bcast_dm                       2432  9.0    0.552    0.613    0.552    0.613
 arnoldi_conjugate_gradient           5  6.0    0.011    0.014    0.590    0.590
 create_A                             1  8.0    0.003    0.006    0.560    0.577
 create_B                             1  8.0    0.000    0.000    0.416    0.499
 init_scf_run                         1  3.0    0.001    0.008    0.460    0.460
 cp_fm_to_fm_submat_general         112 10.1    0.270    0.456    0.270    0.456
 mp_isend_dv                      27877 11.8    0.171    0.450    0.171    0.450
 pw_axpy                            755  9.3    0.361    0.450    0.361    0.450
 dbt_copy                            12 10.1    0.000    0.000    0.414    0.449
 integrate_four_center_getP          76 10.0    0.020    0.033    0.386    0.441
 mp_waitall_2                        50 15.7    0.339    0.432    0.339    0.432
 transfer_rs2pw_10                   76  9.0    0.125    0.142    0.359    0.420
 scf_env_initial_rho_setup            1  4.0    0.000    0.001    0.419    0.420
 dbt_reshape                          8 11.6    0.017    0.019    0.380    0.413
 pw_copy_from_array                 830 12.1    0.294    0.404    0.294    0.404
 dbt_communicate_buffer               8 12.6    0.001    0.001    0.355    0.386
 cp_fm_cholesky_decompose           102  9.0    0.378    0.384    0.378    0.384
 compute_Erpa_by_freq_int           100  8.0    0.001    0.001    0.377    0.380
 fft_wrap_pw1pw2_30                 152 10.5    0.004    0.005    0.292    0.368
 fm_general_add_bse                   5 10.2    0.000    0.000    0.302    0.350
 dbcsr_sym_matrix_vector_mult      3765  7.0    0.027    0.029    0.310    0.335
 create_integ_mat                     4  6.0    0.001    0.003    0.292    0.328
 dbt_tas_multiply                     8 11.5    0.000    0.000    0.327    0.327
 dbt_tas_total                        8 12.5    0.001    0.001    0.327    0.327
 array2fm                             4  7.0    0.000    0.000    0.258    0.324
 mp_alltoall_z11v                   304 13.5    0.254    0.320    0.254    0.320
 mp_irecv_dm3                      3052 11.5    0.017    0.312    0.017    0.312
 cp_fm_syrk                           3  7.0    0.302    0.307    0.302    0.307
 mp_sum_l                          1034  6.4    0.206    0.294    0.206    0.294
 pw_zero                            452 10.3    0.259    0.294    0.259    0.294
 transfer_pw2rs_10                   76 12.0    0.088    0.101    0.263    0.293
 mp_rank_compare                   1587 12.9    0.225    0.278    0.225    0.278
 cp_fm_uplo_to_full                 185  8.4    0.177    0.236    0.177    0.236
 calculate_rho0_atom                304  9.0    0.214    0.231    0.214    0.231
 postprocess_bse                      1  9.0    0.000    0.000    0.219    0.226
 mp2_main_alloc_hfx                   1  4.0    0.098    0.224    0.098    0.224
 integrate_four_center_load          76 10.0    0.000    0.014    0.145    0.222
 calculate_dm_sparse                 75  6.0    0.000    0.000    0.206    0.222
 hfx_load_balance                     1 11.0    0.001    0.007    0.144    0.222
 cp_dbcsr_plus_fm_fm_t               75  7.0    0.001    0.001    0.205    0.221
 array2fm_fill                        4  8.0    0.008    0.012    0.095    0.219
 fm_general_add_bse_5_comm_buff       5 11.2    0.000    0.000    0.169    0.219
 communicate_buffer                   5 12.2    0.000    0.000    0.169    0.219
 mp_sum_i                            21  9.7    0.127    0.214    0.127    0.214
 dbcsr_multiply_generic             136  8.1    0.004    0.004    0.203    0.214
 restraint_control                    1  2.0    0.000    0.000    0.126    0.214
 mp_wait                            127  9.0    0.086    0.211    0.086    0.211
 dbt_remap                            8 10.0    0.001    0.002    0.210    0.210
 mp_alltoall_i22                    384  9.2    0.156    0.207    0.156    0.207
 dbt_tas_dbm                          8 13.5    0.000    0.000    0.205    0.205
 hfx_load_balance_range               1 12.0    0.000    0.000    0.126    0.204
 copy_dbcsr_to_fm                   114  6.6    0.002    0.002    0.153    0.202
 array2fm_isendrecv                   4  8.0    0.002    0.003    0.050    0.199
 dbm_multiply                         8 15.5    0.180    0.191    0.180    0.191
 integrate_four_center_dist_KS       76 10.0    0.015    0.019    0.188    0.189
 dbt_tas_mm_1N                        6 14.5    0.000    0.000    0.171    0.181
 create_qs_kind_set                   1  2.0    0.000    0.000    0.170    0.181
 read_qs_kind                         4  3.0    0.047    0.065    0.170    0.181
 xz_to_yz                           152 11.0    0.008    0.011    0.151    0.178
 get_oscillator_strengths             1 10.0    0.000    0.000    0.174    0.174
 qs_init_subsys                       1  2.0    0.007    0.032    0.165    0.166
 dbcsr_rep_row_to_rep_col_vec      3765  8.0    0.009    0.011    0.084    0.163
 yz_to_xz                           152 14.0    0.011    0.013    0.122    0.163
 dbcsr_complete_redistribute        268  8.5    0.014    0.017    0.142    0.157
 qs_env_setup                         1  3.0    0.000    0.001    0.150    0.156
 qs_env_rebuild_pw_env                2  3.5    0.000    0.000    0.149    0.156
 pw_env_rebuild                       1  5.0    0.001    0.008    0.149    0.156
 vxc_of_r_new                       600  9.0    0.000    0.013    0.003    0.153
 dbcsr_col_vec_to_rep_row          3765  8.0    0.013    0.017    0.096    0.144
 array2fm_waitall                     4  8.0    0.000    0.000    0.019    0.143
 fft_wrap_pw1pw2_10                 152 10.5    0.001    0.001    0.105    0.139
 dbcsr_desymmetrize_deep            116  7.6    0.004    0.005    0.089    0.137
 parser_read_line                 18532  4.0    0.003    0.004    0.123    0.136
 parser_read_line_low                32  5.0    0.002    0.018    0.120    0.133
 broadcast_input_information         32  6.0    0.010    0.010    0.117    0.131
 mp_bcast_b_src                     157  7.5    0.102    0.127    0.102    0.127
 pw_grid_setup                        4  6.0    0.000    0.001    0.113    0.120
 pw_grid_setup_internal               4  7.0    0.001    0.002    0.113    0.120
 offload_free_buffer                 84  8.4    0.038    0.118    0.038    0.118
 dbcsr_add_d                       5708  7.0    0.003    0.003    0.021    0.118
 mp_sum_iv                          179  9.9    0.060    0.115    0.060    0.115
 dbcsr_add_anytype                 5708  8.0    0.004    0.022    0.019    0.115
 write_mo_set_to_restart             75  5.0    0.001    0.071    0.059    0.112
 multiply_cannon                    136  9.1    0.007    0.008    0.098    0.107
 mp_bcast_i_src                     128  7.0    0.064    0.107    0.064    0.107
 mp_irecv_dv                      27677 11.8    0.027    0.107    0.027    0.107
 mp_isendrecv_dv                  58064 12.0    0.040    0.103    0.040    0.103
 abc_contract                      2334  9.0    0.049    0.103    0.049    0.103
 copy_fm_to_dbcsr                   154  8.1    0.000    0.000    0.085    0.101
 dbt_nd_mp_comm                       8 11.0    0.000    0.000    0.017    0.090
 multiply_cannon_loop               136 10.1    0.005    0.006    0.081    0.089
 external_control                    76  5.0    0.001    0.084    0.087    0.088
 scf_post_calculation_gpw             1  3.0    0.000    0.000    0.086    0.088
 write_available_results              1  4.0    0.000    0.002    0.086    0.086
 write_mo_free_results                1  5.0    0.002    0.004    0.086    0.086
 dbt_tas_estimate_result_nze          4 12.0    0.002    0.002    0.083    0.083
 allocate_matrices_gw                 1  7.0    0.000    0.000    0.037    0.083
 mp_bcast_am_src                     32  7.0    0.042    0.082    0.042    0.083
 get_vec_sigma_x                      1  8.0    0.000    0.000    0.036    0.082
 scale_and_distribute               152 10.0    0.054    0.080    0.054    0.080
 cp_fm_redistribute_start            81  8.0    0.000    0.000    0.046    0.079
 dbcsr_finalize                    7159 10.5    0.004    0.022    0.022    0.077
 mult_B_with_W                        1  8.0    0.000    0.000    0.068    0.076
 dbt_tas_replicate                    8 13.5    0.015    0.021    0.065    0.074
 array2fm_info                        4  8.0    0.051    0.069    0.054    0.073
 make_m2s                           272  9.1    0.003    0.003    0.069    0.073
 rs_scatter_matrices                 76  7.0    0.001    0.002    0.005    0.068
 cp_fm_symm                          76  7.0    0.062    0.067    0.062    0.067
 mp_bcast_dv                       3765  9.0    0.041    0.065    0.041    0.065
 write_mo_set_low                     4  6.0    0.000    0.000    0.058    0.064
 cp_fm_write_unformatted              4  7.0    0.058    0.059    0.058    0.064
 dbcsr_copy                       15742  7.6    0.022    0.046    0.039    0.063
 mp_isend_im2                       870 13.2    0.038    0.062    0.038    0.062
 cube_transpose_2                   152 11.0    0.003    0.003    0.029    0.055
 multiply_cannon_multrec           1976 11.1    0.043    0.054    0.044    0.054
 make_images                        272 10.1    0.009    0.016    0.051    0.054
 pw_grid_sort                         4  8.0    0.035    0.035    0.048    0.052
 Q_trace_and_add_unit_matrix        100  8.0    0.001    0.002    0.035    0.052
 dbt_tas_communicate_buffer          17 15.8    0.001    0.001    0.041    0.052
 get_2c_integrals                     1  6.0    0.000    0.000    0.041    0.050
 pw_scale                           301  9.5    0.038    0.050    0.038    0.050
 mp_comm_split_direct                48 14.5    0.034    0.050    0.034    0.050
 fm_general_add_bse_1_setup           5 11.2    0.042    0.049    0.042    0.049
 dbt_split_blocks_generic            20  8.8    0.014    0.021    0.045    0.047
 dbt_tas_replicate_communicate_       6 14.5    0.000    0.000    0.036    0.047
 dbt_distribution_new_expert         76 10.1    0.001    0.003    0.040    0.046
 cube_transpose_1                   152 14.0    0.002    0.003    0.021    0.045
 dbcsr_iterator_start             46441  8.8    0.025    0.036    0.031    0.044
 array2fm_buffer_send                 4  8.0    0.037    0.041    0.037    0.041
 hirshfeld_integration                1  6.0    0.001    0.004    0.039    0.039
 get_multipoles_mo                    1 10.0    0.001    0.003    0.032    0.039
 calculate_hirshfeld_normalizat       1  6.0    0.001    0.004    0.037    0.038
 dbcsr_merge_all                   6413 11.2    0.007    0.027    0.014    0.038
 truncate_BSE_matrices                1  8.0    0.000    0.000    0.031    0.034
 xc_pw_smooth                        75 10.0    0.000    0.000    0.023    0.034
 ao_to_mo_and_store_B_mult_gw_1       7  7.0    0.000    0.000    0.030    0.034
 dbcsr_create_new                 18168  8.8    0.018    0.020    0.025    0.033
 mp2_main_free_hfx                    1  4.0    0.014    0.033    0.014    0.033
 mp_alltoall_i                       40 13.9    0.022    0.032    0.022    0.032
 fm_general_add_bse_4_buf_from_       1 10.0    0.025    0.032    0.025    0.032
 dbcsr_dot                          151  8.0    0.001    0.001    0.026    0.031
 dbm_reserve_blocks                  68 14.1    0.028    0.031    0.028    0.031
 ao_to_mo_and_store_B_mult_bse_       7  7.0    0.000    0.000    0.026    0.029
 fm_general_add_bse_4_buf_from_       1 10.0    0.025    0.029    0.025    0.029
 dbcsr_gershgorin_norm                1  6.0    0.000    0.004    0.022    0.029
 dbt_tas_distribution_new            96 11.8    0.015    0.016    0.027    0.028
 cp_fm_create                       223  7.4    0.019    0.028    0.019    0.028
 mp_maxloc_dv                      1529  1.0    0.027    0.027    0.027    0.027
 multiply_cannon_metrocomm3        1976 11.1    0.003    0.003    0.015    0.027
 calc_fm_mat_S_rpa                  100  9.0    0.009    0.027    0.009    0.027
 calculate_first_density_matrix       1  5.0    0.001    0.008    0.027    0.027
 calculate_atomic_block_dm            1  6.0    0.003    0.011    0.025    0.027
 dbcsr_iterator_stop              46441  8.8    0.018    0.022    0.022    0.026
 compute_max_radius                   1  6.0    0.026    0.026    0.026    0.026
 dbt_tas_reserve_blocks_index        60 13.0    0.000    0.000    0.023    0.026
 hybrid_alltoall_any                388 11.0    0.011    0.013    0.016    0.026
 rs_grid_create                      82  8.8    0.000    0.001    0.003    0.025
 fm_general_add_bse_2_comm_entr       5 11.2    0.000    0.000    0.015    0.025
 make_images_data                   272 11.1    0.002    0.002    0.015    0.025
 offload_create_buffer               84  9.7    0.002    0.025    0.002    0.025
 topology_control                     1  2.0    0.001    0.006    0.004    0.023
 dbt_reserve_blocks_index            36 10.8    0.001    0.001    0.019    0.022
 make_images_sizes                  272 11.1    0.000    0.000    0.018    0.021
 mixing_init                          1  5.0    0.020    0.021    0.021    0.021
 mp_alltoall_i44                    272 12.1    0.018    0.021    0.018    0.021
 mp_cart_sub                        234  8.7    0.019    0.021    0.019    0.021
 self_consistency_check              75  5.0    0.000    0.000    0.008    0.020
 compute_2c_integrals                 1  7.0    0.000    0.000    0.017    0.020
 cp_sm_mix                           75  6.0    0.000    0.000    0.008    0.020
 mp_max_d                            77  6.9    0.008    0.020    0.008    0.020
 create_fast_col_vec_access        7530  8.0    0.011    0.012    0.019    0.020
 create_fast_row_vec_access        7530  8.0    0.011    0.012    0.019    0.020
 dbt_split_copyback                   4 10.0    0.014    0.016    0.018    0.020
 dbcsr_sym_matrix_vector_mult_l    3765  8.0    0.006    0.014    0.011    0.019
 build_overlap_matrix_low             1  5.0    0.001    0.008    0.003    0.019
 -------------------------------------------------------------------------------

 The number of warnings for this run is : 1
 
 -------------------------------------------------------------------------------
  **** **** ******  **  PROGRAM ENDED AT                 2025-03-15 03:16:33.105
 ***** ** ***  *** **   PROGRAM RAN ON                     n2cn0231.ab2021.local
 **    ****   ******    PROGRAM RAN BY                                  metdyn02
 ***** **    ** ** **   PROGRAM PROCESS ID                               2387790
  **** **  *******  **  PROGRAM STOPPED IN /scratch/hpc-prf-metdyn/metdyn02_Remi
                                           /10_MOL/05_MOL/aUKBqsEOTmq69kFe5R_nOg
                                           /5k_set_final_qzvp/BZTRZO/DZVP/GW+BSE
                                           /RILIM
