 DBCSR| CPU Multiplication driver                                           BLAS (U)
 DBCSR| Multrec recursion limit                                              512 (U)
 DBCSR| Multiplication stack size                                           1000 (D)
 DBCSR| Maximum elements for images                                    UNLIMITED (U)
 DBCSR| Multiplicative factor virtual images                                   1 (U)
 DBCSR| Use multiplication densification                                       T (D)
 DBCSR| Multiplication size stacks                                             3 (U)
 DBCSR| Use memory pool for CPU allocation                                     F (U)
 DBCSR| Number of 3D layers                                               SINGLE (U)
 DBCSR| Use MPI memory allocation                                              F (U)
 DBCSR| Use RMA algorithm                                                      F (U)
 DBCSR| Use Communication thread                                               T (U)
 DBCSR| Communication thread load                                             45 (D)
 DBCSR| MPI: My process id                                                     0
 DBCSR| MPI: Number of processes                                             512
 DBCSR| OMP: Current number of threads                                        12
 DBCSR| OMP: Max number of threads                                            12
 DBCSR| Split modifier for TAS multiplication algorithm                  1.0E+00 (U)


  **** **** ******  **  PROGRAM STARTED AT               2025-04-23 20:50:38.937
 ***** ** ***  *** **   PROGRAM STARTED ON                          i01r10c05s03
 **    ****   ******    PROGRAM STARTED BY                               di38fab
 ***** **    ** ** **   PROGRAM PROCESS ID                               3606588
  **** **  *******  **  PROGRAM STARTED IN /hppfs/scratch/04/di38fab/07_MOL_non_
                                           aug/05_MOL_non_aug/05_MOL/aUKBqsEOTmq
                                           69kFe5R_nOg/5k_set_final_qzvp/IQUJEK/
                                           cc-pV5Z/GW+BSE

 CP2K| version string:                 CP2K version 2025.1 (Development Version)
 CP2K| source code revision number:                             unknown revision
 CP2K| cp2kflags: omp libint fftw3 libxc parallel scalapack max_contr=4         
 CP2K| is freely available from                            https://www.cp2k.org/
 CP2K| Program compiled at                         Thu Apr 10 16:20:23 CEST 2025
 CP2K| Program compiled on                                               login01
 CP2K| Program compiled for                                        Supermuc-foss
 CP2K| Data directory path                  /hppfs/work/pn36zo/di38fab/cp2k/data
 CP2K| Input file name                                                    GW.inp

 GLOBAL| Force Environment number                                              1
 GLOBAL| Basis set file name            /hppfs/scratch/04/di38fab/04_TMD/BASIS_A
 GLOBAL| Potential file name            /hppfs/work/pn36zo/di38fab/cp2k/data/ALL
 GLOBAL| MM Potential file name                                     MM_POTENTIAL
 GLOBAL| Coordinate file name                                      __STD_INPUT__
 GLOBAL| Method name                                                        CP2K
 GLOBAL| Project name                                                       MoS2
 GLOBAL| Run type                                                         ENERGY
 GLOBAL| FFT library                                                       FFTW3
 GLOBAL| Diagonalization library                                       ScaLAPACK
 GLOBAL| DGEMM library                                                      BLAS
 GLOBAL| Orthonormality check for eigenvectors                          DISABLED
 GLOBAL| Matrix multiplication library                                 ScaLAPACK
 GLOBAL| All-to-all communication in single precision                          F
 GLOBAL| FFTs using library dependent lengths                                  F
 GLOBAL| Grid backend                                                       AUTO
 GLOBAL| Global print level                                               MEDIUM
 GLOBAL| MPI I/O enabled                                                       T
 GLOBAL| Total number of message passing processes                           512
 GLOBAL| Number of threads for this process                                   12
 GLOBAL| This output is from process                                           0
 GLOBAL| OpenMP stack size per thread (OMP_STACKSIZE)                    default
 GLOBAL| CPU model name             Intel(R) Xeon(R) Platinum 8174 CPU @ 3.10GHz

 MEMORY| system memory details [Kb]
 MEMORY|                        rank 0           min           max       average
 MEMORY| MemTotal             98436660      98429584      98436736      98436612
 MEMORY| MemFree              84753984      84099208      86594780      84603365
 MEMORY| Buffers                     0             0             0             0
 MEMORY| Cached                2373616       2328400       2396776       2372799
 MEMORY| Slab                  1276008        946312       1276008       1228047
 MEMORY| SReclaimable           285696        201512        291052        272458
 MEMORY| MemLikelyFree        87413296      86744656      89124692      87248623


 *** Fundamental physical constants (SI units) ***

 *** Literature: B. J. Mohr and B. N. Taylor,
 ***             CODATA recommended values of the fundamental physical
 ***             constants: 2006, Web Version 5.1
 ***             http://physics.nist.gov/constants

 Speed of light in vacuum [m/s]                             2.99792458000000E+08
 Magnetic constant or permeability of vacuum [N/A**2]       1.25663706143592E-06
 Electric constant or permittivity of vacuum [F/m]          8.85418781762039E-12
 Planck constant (h) [J*s]                                  6.62606896000000E-34
 Planck constant (h-bar) [J*s]                              1.05457162825177E-34
 Elementary charge [C]                                      1.60217648700000E-19
 Electron mass [kg]                                         9.10938215000000E-31
 Electron g factor [ ]                                     -2.00231930436220E+00
 Proton mass [kg]                                           1.67262163700000E-27
 Fine-structure constant                                    7.29735253760000E-03
 Rydberg constant [1/m]                                     1.09737315685270E+07
 Avogadro constant [1/mol]                                  6.02214179000000E+23
 Boltzmann constant [J/K]                                   1.38065040000000E-23
 Atomic mass unit [kg]                                      1.66053878200000E-27
 Bohr radius [m]                                            5.29177208590000E-11

 *** Conversion factors ***

 [u] -> [a.u.]                                              1.82288848426455E+03
 [Angstrom] -> [Bohr] = [a.u.]                              1.88972613288564E+00
 [a.u.] = [Bohr] -> [Angstrom]                              5.29177208590000E-01
 [a.u.] -> [s]                                              2.41888432650478E-17
 [a.u.] -> [fs]                                             2.41888432650478E-02
 [a.u.] -> [J]                                              4.35974393937059E-18
 [a.u.] -> [N]                                              8.23872205491840E-08
 [a.u.] -> [K]                                              3.15774647902944E+05
 [a.u.] -> [kJ/mol]                                         2.62549961709828E+03
 [a.u.] -> [kcal/mol]                                       6.27509468713739E+02
 [a.u.] -> [Pa]                                             2.94210107994716E+13
 [a.u.] -> [bar]                                            2.94210107994716E+08
 [a.u.] -> [atm]                                            2.90362800883016E+08
 [a.u.] -> [eV]                                             2.72113838565563E+01
 [a.u.] -> [Hz]                                             6.57968392072181E+15
 [a.u.] -> [1/cm] (wave numbers)                            2.19474631370540E+05
 [a.u./Bohr**2] -> [1/cm]                                   5.14048714338585E+03
 

 CELL_TOP| Volume [angstrom^3]:                                     27000.000000
 CELL_TOP| Vector a [angstrom    30.000     0.000     0.000   |a| =    30.000000
 CELL_TOP| Vector b [angstrom     0.000    30.000     0.000   |b| =    30.000000
 CELL_TOP| Vector c [angstrom     0.000     0.000    30.000   |c| =    30.000000
 CELL_TOP| Angle (b,c), alpha [degree]:                                90.000000
 CELL_TOP| Angle (a,c), beta  [degree]:                                90.000000
 CELL_TOP| Angle (a,b), gamma [degree]:                                90.000000
 CELL_TOP| Numerically orthorhombic:                                         YES
 CELL_TOP| Periodicity                                                      NONE

 GENERATE|  Preliminary Number of Bonds generated:                             0
 GENERATE|  Achieved consistency in connectivity generation.

 CELL| Volume [angstrom^3]:                                         27000.000000
 CELL| Vector a [angstrom]:      30.000     0.000     0.000   |a| =    30.000000
 CELL| Vector b [angstrom]:       0.000    30.000     0.000   |b| =    30.000000
 CELL| Vector c [angstrom]:       0.000     0.000    30.000   |c| =    30.000000
 CELL| Angle (b,c), alpha [degree]:                                    90.000000
 CELL| Angle (a,c), beta  [degree]:                                    90.000000
 CELL| Angle (a,b), gamma [degree]:                                    90.000000
 CELL| Numerically orthorhombic:                                             YES
 CELL| Periodicity                                                          NONE

 CELL_REF| Volume [angstrom^3]:                                     27000.000000
 CELL_REF| Vector a [angstrom    30.000     0.000     0.000   |a| =    30.000000
 CELL_REF| Vector b [angstrom     0.000    30.000     0.000   |b| =    30.000000
 CELL_REF| Vector c [angstrom     0.000     0.000    30.000   |c| =    30.000000
 CELL_REF| Angle (b,c), alpha [degree]:                                90.000000
 CELL_REF| Angle (a,c), beta  [degree]:                                90.000000
 CELL_REF| Angle (a,b), gamma [degree]:                                90.000000
 CELL_REF| Numerically orthorhombic:                                         YES
 CELL_REF| Periodicity                                                      NONE

 *******************************************************************************
 *******************************************************************************
 **                                                                           **
 **     #####                         ##              ##                      **
 **    ##   ##            ##          ##              ##                      **
 **   ##     ##                       ##            ######                    **
 **   ##     ##  ##   ##  ##   #####  ##  ##   ####   ##    #####    #####    **
 **   ##     ##  ##   ##  ##  ##      ## ##   ##      ##   ##   ##  ##   ##   **
 **   ##  ## ##  ##   ##  ##  ##      ####     ###    ##   ######   ######    **
 **    ##  ###   ##   ##  ##  ##      ## ##      ##   ##   ##       ##        **
 **     #######   #####   ##   #####  ##  ##  ####    ##    #####   ##        **
 **           ##                                                    ##        **
 **                                                                           **
 **                                                ... make the atoms dance   **
 **                                                                           **
 **            Copyright (C) by CP2K developers group (2000-2025)             **
 **                      J. Chem. Phys. 152, 194103 (2020)                    **
 **                                                                           **
 *******************************************************************************

 DFT| Spin restricted Kohn-Sham (RKS) calculation                            RKS
 DFT| Multiplicity                                                             1
 DFT| Number of spin states                                                    1
 DFT| Charge                                                                   0
 DFT| Self-interaction correction (SIC)                                       NO
 DFT| Cutoffs: density                                              1.000000E-10
 DFT|          gradient                                             1.000000E-10
 DFT|          tau                                                  1.000000E-10
 DFT|          cutoff_smoothing_range                               0.000000E+00
 DFT| XC density smoothing                                                  NONE
 DFT| XC derivatives                                                          PW

 FUNCTIONAL| PBE:
 FUNCTIONAL| J.P.Perdew, K.Burke, M.Ernzerhof, Phys. Rev. Letter, vol. 77, n 18,
 FUNCTIONAL|  pp. 3865-3868, (1996)sx=0.750sc=1.000{spin unpolarized}           


 QS| Method:                                                                GAPW
 QS| Density plane wave grid type                        NON-SPHERICAL FULLSPACE
 QS| Number of grid levels:                                                    4
 QS| Density cutoff [a.u.]:                                                250.0
 QS| Multi grid cutoff [a.u.]: 1) grid level                               250.0
 QS|                           2) grid level                                83.3
 QS|                           3) grid level                                27.8
 QS|                           4) grid level                                 9.3
 QS| Grid level progression factor:                                          3.0
 QS| Relative density cutoff [a.u.]:                                        50.0
 QS| Interaction thresholds: eps_pgf_orb:                                1.0E-12
 QS|                         eps_filter_matrix:                          0.0E+00
 QS|                         eps_core_charge:                            1.0E-14
 QS|                         eps_rho_gspace:                             1.0E-12
 QS|                         eps_rho_rspace:                             1.0E-12
 QS|                         eps_gvg_rspace:                             1.0E-06
 QS|                         eps_ppl:                                    1.0E-02
 QS|                         eps_ppnl:                                   1.0E-08
 QS| GAPW|      One center basis from orbital basis primitives
 QS| GAPW|                   eps_fit:                                    1.0E-04
 QS| GAPW|                   eps_iso:                                    1.0E-12
 QS| GAPW|                   eps_svd:                                    1.0E-08
 QS| GAPW|                   eps_cpc:                                    1.0E-12
 QS| GAPW|   atom-r-grid: quadrature:                                     GC_LOG
 QS| GAPW|      atom-s-grid:  max l :                                         10
 QS| GAPW|      max_l_rho0 :                                                   2


 ATOMIC KIND INFORMATION

  1. Atomic kind: N                                     Number of atoms:       4

     Orbital Basis Set                                                   cc-pV5Z

       Number of orbital shell sets:                                           6
       Number of orbital shells:                                              21
       Number of primitive Cartesian functions:                               32
       Number of Cartesian basis functions:                                  126
       Number of spherical basis functions:                                   91
       Norm type:                                                              2

       Normalised Cartesian orbitals:

                        Set   Shell   Orbital            Exponent    Coefficient

                          1       1    1px             147.000000       0.000000
                                                        34.760000       0.000000
                                                        11.000000       0.000000
                                                         3.995000       0.000000
                                                         1.587000       2.538991
                                                         0.653300       0.000000
                                                         0.268600       0.000000
                                                         0.106700       0.000000
                          1       1    1py             147.000000       0.000000
                                                        34.760000       0.000000
                                                        11.000000       0.000000
                                                         3.995000       0.000000
                                                         1.587000       2.538991
                                                         0.653300       0.000000
                                                         0.268600       0.000000
                                                         0.106700       0.000000
                          1       1    1pz             147.000000       0.000000
                                                        34.760000       0.000000
                                                        11.000000       0.000000
                                                         3.995000       0.000000
                                                         1.587000       2.538991
                                                         0.653300       0.000000
                                                         0.268600       0.000000
                                                         0.106700       0.000000

                          1       2    2px             147.000000       0.000000
                                                        34.760000       0.000000
                                                        11.000000       0.000000
                                                         3.995000       0.000000
                                                         1.587000       0.000000
                                                         0.653300       0.837203
                                                         0.268600       0.000000
                                                         0.106700       0.000000
                          1       2    2py             147.000000       0.000000
                                                        34.760000       0.000000
                                                        11.000000       0.000000
                                                         3.995000       0.000000
                                                         1.587000       0.000000
                                                         0.653300       0.837203
                                                         0.268600       0.000000
                                                         0.106700       0.000000
                          1       2    2pz             147.000000       0.000000
                                                        34.760000       0.000000
                                                        11.000000       0.000000
                                                         3.995000       0.000000
                                                         1.587000       0.000000
                                                         0.653300       0.837203
                                                         0.268600       0.000000
                                                         0.106700       0.000000

                          1       3    3px             147.000000       0.650807
                                                        34.760000       0.852013
                                                        11.000000       0.937059
                                                         3.995000       0.871164
                                                         1.587000       0.629909
                                                         0.653300       0.313544
                                                         0.268600       0.096033
                                                         0.106700       0.011156
                          1       3    3py             147.000000       0.650807
                                                        34.760000       0.852013
                                                        11.000000       0.937059
                                                         3.995000       0.871164
                                                         1.587000       0.629909
                                                         0.653300       0.313544
                                                         0.268600       0.096033
                                                         0.106700       0.011156
                          1       3    3pz             147.000000       0.650807
                                                        34.760000       0.852013
                                                        11.000000       0.937059
                                                         3.995000       0.871164
                                                         1.587000       0.629909
                                                         0.653300       0.313544
                                                         0.268600       0.096033
                                                         0.106700       0.011156

                          1       4    4px             147.000000       0.000000
                                                        34.760000       0.000000
                                                        11.000000       0.000000
                                                         3.995000       0.000000
                                                         1.587000       0.000000
                                                         0.653300       0.000000
                                                         0.268600       0.275628
                                                         0.106700       0.000000
                          1       4    4py             147.000000       0.000000
                                                        34.760000       0.000000
                                                        11.000000       0.000000
                                                         3.995000       0.000000
                                                         1.587000       0.000000
                                                         0.653300       0.000000
                                                         0.268600       0.275628
                                                         0.106700       0.000000
                          1       4    4pz             147.000000       0.000000
                                                        34.760000       0.000000
                                                        11.000000       0.000000
                                                         3.995000       0.000000
                                                         1.587000       0.000000
                                                         0.653300       0.000000
                                                         0.268600       0.275628
                                                         0.106700       0.000000

                          1       5    5px             147.000000       0.000000
                                                        34.760000       0.000000
                                                        11.000000       0.000000
                                                         3.995000       0.000000
                                                         1.587000       0.000000
                                                         0.653300       0.000000
                                                         0.268600       0.000000
                                                         0.106700       0.086925
                          1       5    5py             147.000000       0.000000
                                                        34.760000       0.000000
                                                        11.000000       0.000000
                                                         3.995000       0.000000
                                                         1.587000       0.000000
                                                         0.653300       0.000000
                                                         0.268600       0.000000
                                                         0.106700       0.086925
                          1       5    5pz             147.000000       0.000000
                                                        34.760000       0.000000
                                                        11.000000       0.000000
                                                         3.995000       0.000000
                                                         1.587000       0.000000
                                                         0.653300       0.000000
                                                         0.268600       0.000000
                                                         0.106700       0.086925

                          2       1    1s           129200.000000       0.121422
                                                     19350.000000       0.230350
                                                      4404.000000       0.397627
                                                      1248.000000       0.647228
                                                       408.000000       0.995089
                                                       148.200000       1.418775
                                                        58.500000       1.810832
                                                        24.590000       1.933640
                                                        10.810000       1.535474
                                                         4.882000       0.672463
                                                         2.195000       0.090187
                                                         0.871500       0.001177
                                                         0.350400       0.000271
                                                         0.139700      -0.000001

                          2       2    2s           129200.000000       0.000000
                                                     19350.000000       0.000000
                                                      4404.000000       0.000000
                                                      1248.000000       0.000000
                                                       408.000000       0.000000
                                                       148.200000       0.000000
                                                        58.500000       0.000000
                                                        24.590000       0.000000
                                                        10.810000       0.000000
                                                         4.882000       0.000000
                                                         2.195000       1.285245
                                                         0.871500       0.000000
                                                         0.350400       0.000000
                                                         0.139700       0.000000

                          2       3    3s           129200.000000       0.000000
                                                     19350.000000       0.000000
                                                      4404.000000       0.000000
                                                      1248.000000       0.000000
                                                       408.000000       0.000000
                                                       148.200000       0.000000
                                                        58.500000       0.000000
                                                        24.590000       0.000000
                                                        10.810000       0.000000
                                                         4.882000       0.000000
                                                         2.195000       0.000000
                                                         0.871500       0.642851
                                                         0.350400       0.000000
                                                         0.139700       0.000000

                          2       4    4s           129200.000000       0.000000
                                                     19350.000000       0.000000
                                                      4404.000000       0.000000
                                                      1248.000000       0.000000
                                                       408.000000       0.000000
                                                       148.200000       0.000000
                                                        58.500000       0.000000
                                                        24.590000       0.000000
                                                        10.810000       0.000000
                                                         4.882000       0.000000
                                                         2.195000       0.000000
                                                         0.871500       0.000000
                                                         0.350400       0.324589
                                                         0.139700       0.000000

                          2       5    5s           129200.000000      -0.029141
                                                     19350.000000      -0.050279
                                                      4404.000000      -0.087462
                                                      1248.000000      -0.143363
                                                       408.000000      -0.221016
                                                       148.200000      -0.322915
                                                        58.500000      -0.426325
                                                        24.590000      -0.503842
                                                        10.810000      -0.484089
                                                         4.882000      -0.344081
                                                         2.195000      -0.009319
                                                         0.871500       0.235401
                                                         0.350400       0.177845
                                                         0.139700       0.035282

                          2       6    6s           129200.000000       0.000000
                                                     19350.000000       0.000000
                                                      4404.000000       0.000000
                                                      1248.000000       0.000000
                                                       408.000000       0.000000
                                                       148.200000       0.000000
                                                        58.500000       0.000000
                                                        24.590000       0.000000
                                                        10.810000       0.000000
                                                         4.882000       0.000000
                                                         2.195000       0.000000
                                                         0.871500       0.000000
                                                         0.350400       0.000000
                                                         0.139700       0.162857

                          3       1    1dx2              4.647000      24.208152
                                                         1.813000       0.000000
                                                         0.707000       0.000000
                                                         0.276000       0.000000
                          3       1    1dxy              4.647000      41.929749
                                                         1.813000       0.000000
                                                         0.707000       0.000000
                                                         0.276000       0.000000
                          3       1    1dxz              4.647000      41.929749
                                                         1.813000       0.000000
                                                         0.707000       0.000000
                                                         0.276000       0.000000
                          3       1    1dy2              4.647000      24.208152
                                                         1.813000       0.000000
                                                         0.707000       0.000000
                                                         0.276000       0.000000
                          3       1    1dyz              4.647000      41.929749
                                                         1.813000       0.000000
                                                         0.707000       0.000000
                                                         0.276000       0.000000
                          3       1    1dz2              4.647000      24.208152
                                                         1.813000       0.000000
                                                         0.707000       0.000000
                                                         0.276000       0.000000

                          3       2    2dx2              4.647000       0.000000
                                                         1.813000       4.662358
                                                         0.707000       0.000000
                                                         0.276000       0.000000
                          3       2    2dxy              4.647000       0.000000
                                                         1.813000       8.075441
                                                         0.707000       0.000000
                                                         0.276000       0.000000
                          3       2    2dxz              4.647000       0.000000
                                                         1.813000       8.075441
                                                         0.707000       0.000000
                                                         0.276000       0.000000
                          3       2    2dy2              4.647000       0.000000
                                                         1.813000       4.662358
                                                         0.707000       0.000000
                                                         0.276000       0.000000
                          3       2    2dyz              4.647000       0.000000
                                                         1.813000       8.075441
                                                         0.707000       0.000000
                                                         0.276000       0.000000
                          3       2    2dz2              4.647000       0.000000
                                                         1.813000       4.662358
                                                         0.707000       0.000000
                                                         0.276000       0.000000

                          3       3    3dx2              4.647000       0.000000
                                                         1.813000       0.000000
                                                         0.707000       0.897209
                                                         0.276000       0.000000
                          3       3    3dxy              4.647000       0.000000
                                                         1.813000       0.000000
                                                         0.707000       1.554011
                                                         0.276000       0.000000
                          3       3    3dxz              4.647000       0.000000
                                                         1.813000       0.000000
                                                         0.707000       1.554011
                                                         0.276000       0.000000
                          3       3    3dy2              4.647000       0.000000
                                                         1.813000       0.000000
                                                         0.707000       0.897209
                                                         0.276000       0.000000
                          3       3    3dyz              4.647000       0.000000
                                                         1.813000       0.000000
                                                         0.707000       1.554011
                                                         0.276000       0.000000
                          3       3    3dz2              4.647000       0.000000
                                                         1.813000       0.000000
                                                         0.707000       0.897209
                                                         0.276000       0.000000

                          3       4    4dx2              4.647000       0.000000
                                                         1.813000       0.000000
                                                         0.707000       0.000000
                                                         0.276000       0.172982
                          3       4    4dxy              4.647000       0.000000
                                                         1.813000       0.000000
                                                         0.707000       0.000000
                                                         0.276000       0.299613
                          3       4    4dxz              4.647000       0.000000
                                                         1.813000       0.000000
                                                         0.707000       0.000000
                                                         0.276000       0.299613
                          3       4    4dy2              4.647000       0.000000
                                                         1.813000       0.000000
                                                         0.707000       0.000000
                                                         0.276000       0.172982
                          3       4    4dyz              4.647000       0.000000
                                                         1.813000       0.000000
                                                         0.707000       0.000000
                                                         0.276000       0.299613
                          3       4    4dz2              4.647000       0.000000
                                                         1.813000       0.000000
                                                         0.707000       0.000000
                                                         0.276000       0.172982

                          4       1    1fx3              2.942000      16.687853
                                                         1.204000       0.000000
                                                         0.493000       0.000000
                          4       1    1fx2y             2.942000      37.315173
                                                         1.204000       0.000000
                                                         0.493000       0.000000
                          4       1    1fx2z             2.942000      37.315173
                                                         1.204000       0.000000
                                                         0.493000       0.000000
                          4       1    1fxy2             2.942000      37.315173
                                                         1.204000       0.000000
                                                         0.493000       0.000000
                          4       1    1fxyz             2.942000      64.631775
                                                         1.204000       0.000000
                                                         0.493000       0.000000
                          4       1    1fxz2             2.942000      37.315173
                                                         1.204000       0.000000
                                                         0.493000       0.000000
                          4       1    1fy3              2.942000      16.687853
                                                         1.204000       0.000000
                                                         0.493000       0.000000
                          4       1    1fy2z             2.942000      37.315173
                                                         1.204000       0.000000
                                                         0.493000       0.000000
                          4       1    1fyz2             2.942000      37.315173
                                                         1.204000       0.000000
                                                         0.493000       0.000000
                          4       1    1fz3              2.942000      16.687853
                                                         1.204000       0.000000
                                                         0.493000       0.000000

                          4       2    2fx3              2.942000       0.000000
                                                         1.204000       2.235445
                                                         0.493000       0.000000
                          4       2    2fx2y             2.942000       0.000000
                                                         1.204000       4.998608
                                                         0.493000       0.000000
                          4       2    2fx2z             2.942000       0.000000
                                                         1.204000       4.998608
                                                         0.493000       0.000000
                          4       2    2fxy2             2.942000       0.000000
                                                         1.204000       4.998608
                                                         0.493000       0.000000
                          4       2    2fxyz             2.942000       0.000000
                                                         1.204000       8.657842
                                                         0.493000       0.000000
                          4       2    2fxz2             2.942000       0.000000
                                                         1.204000       4.998608
                                                         0.493000       0.000000
                          4       2    2fy3              2.942000       0.000000
                                                         1.204000       2.235445
                                                         0.493000       0.000000
                          4       2    2fy2z             2.942000       0.000000
                                                         1.204000       4.998608
                                                         0.493000       0.000000
                          4       2    2fyz2             2.942000       0.000000
                                                         1.204000       4.998608
                                                         0.493000       0.000000
                          4       2    2fz3              2.942000       0.000000
                                                         1.204000       2.235445
                                                         0.493000       0.000000

                          4       3    3fx3              2.942000       0.000000
                                                         1.204000       0.000000
                                                         0.493000       0.299820
                          4       3    3fx2y             2.942000       0.000000
                                                         1.204000       0.000000
                                                         0.493000       0.670417
                          4       3    3fx2z             2.942000       0.000000
                                                         1.204000       0.000000
                                                         0.493000       0.670417
                          4       3    3fxy2             2.942000       0.000000
                                                         1.204000       0.000000
                                                         0.493000       0.670417
                          4       3    3fxyz             2.942000       0.000000
                                                         1.204000       0.000000
                                                         0.493000       1.161196
                          4       3    3fxz2             2.942000       0.000000
                                                         1.204000       0.000000
                                                         0.493000       0.670417
                          4       3    3fy3              2.942000       0.000000
                                                         1.204000       0.000000
                                                         0.493000       0.299820
                          4       3    3fy2z             2.942000       0.000000
                                                         1.204000       0.000000
                                                         0.493000       0.670417
                          4       3    3fyz2             2.942000       0.000000
                                                         1.204000       0.000000
                                                         0.493000       0.670417
                          4       3    3fz3              2.942000       0.000000
                                                         1.204000       0.000000
                                                         0.493000       0.299820

                          5       1    1gx4              2.511000      13.996321
                                                         0.942000       0.000000
                          5       1    1gx3y             2.511000      37.030784
                                                         0.942000       0.000000
                          5       1    1gx3z             2.511000      37.030784
                                                         0.942000       0.000000
                          5       1    1gx2y2            2.511000      47.806536
                                                         0.942000       0.000000
                          5       1    1gx2yz            2.511000      82.803350
                                                         0.942000       0.000000
                          5       1    1gx2z2            2.511000      47.806536
                                                         0.942000       0.000000
                          5       1    1gxy3             2.511000      37.030784
                                                         0.942000       0.000000
                          5       1    1gxy2z            2.511000      82.803350
                                                         0.942000       0.000000
                          5       1    1gxyz2            2.511000      82.803350
                                                         0.942000       0.000000
                          5       1    1gxz3             2.511000      37.030784
                                                         0.942000       0.000000
                          5       1    1gy4              2.511000      13.996321
                                                         0.942000       0.000000
                          5       1    1gy3z             2.511000      37.030784
                                                         0.942000       0.000000
                          5       1    1gy2z2            2.511000      47.806536
                                                         0.942000       0.000000
                          5       1    1gyz3             2.511000      37.030784
                                                         0.942000       0.000000
                          5       1    1gz4              2.511000      13.996321
                                                         0.942000       0.000000

                          5       2    2gx4              2.511000       0.000000
                                                         0.942000       0.944225
                          5       2    2gx3y             2.511000       0.000000
                                                         0.942000       2.498184
                          5       2    2gx3z             2.511000       0.000000
                                                         0.942000       2.498184
                          5       2    2gx2y2            2.511000       0.000000
                                                         0.942000       3.225142
                          5       2    2gx2yz            2.511000       0.000000
                                                         0.942000       5.586109
                          5       2    2gx2z2            2.511000       0.000000
                                                         0.942000       3.225142
                          5       2    2gxy3             2.511000       0.000000
                                                         0.942000       2.498184
                          5       2    2gxy2z            2.511000       0.000000
                                                         0.942000       5.586109
                          5       2    2gxyz2            2.511000       0.000000
                                                         0.942000       5.586109
                          5       2    2gxz3             2.511000       0.000000
                                                         0.942000       2.498184
                          5       2    2gy4              2.511000       0.000000
                                                         0.942000       0.944225
                          5       2    2gy3z             2.511000       0.000000
                                                         0.942000       2.498184
                          5       2    2gy2z2            2.511000       0.000000
                                                         0.942000       3.225142
                          5       2    2gyz3             2.511000       0.000000
                                                         0.942000       2.498184
                          5       2    2gz4              2.511000       0.000000
                                                         0.942000       0.944225

                          6       1    1hx5              1.768000       4.727826
                          6       1    1hx4y             1.768000      14.183479
                          6       1    1hx4z             1.768000      14.183479
                          6       1    1hx3y2            1.768000      21.665622
                          6       1    1hx3yz            1.768000      37.525958
                          6       1    1hx3z2            1.768000      21.665622
                          6       1    1hx2y3            1.768000      21.665622
                          6       1    1hx2y2z           1.768000      48.445803
                          6       1    1hx2yz2           1.768000      48.445803
                          6       1    1hx2z3            1.768000      21.665622
                          6       1    1hxy4             1.768000      14.183479
                          6       1    1hxy3z            1.768000      37.525958
                          6       1    1hxy2z2           1.768000      48.445803
                          6       1    1hxyz3            1.768000      37.525958
                          6       1    1hxz4             1.768000      14.183479
                          6       1    1hy5              1.768000       4.727826
                          6       1    1hy4z             1.768000      14.183479
                          6       1    1hy3z2            1.768000      21.665622
                          6       1    1hy2z3            1.768000      21.665622
                          6       1    1hyz4             1.768000      14.183479
                          6       1    1hz5              1.768000       4.727826

     RI Auxiliary Basis Set                                        cc-pV5Z-RIFIT

       Number of orbital shell sets:                                          39
       Number of orbital shells:                                              39
       Number of primitive Cartesian functions:                               39
       Number of Cartesian basis functions:                                  287
       Number of spherical basis functions:                                  193
       Norm type:                                                              2

       Normalised Cartesian orbitals:

                        Set   Shell   Orbital            Exponent    Coefficient

                          1       1    1s                0.175888       0.193570

                          2       1    1dx2              0.281938       0.179547
                          2       1    1dxy              0.281938       0.310985
                          2       1    1dxz              0.281938       0.310985
                          2       1    1dy2              0.281938       0.179547
                          2       1    1dyz              0.281938       0.310985
                          2       1    1dz2              0.281938       0.179547

                          3       1    1px               0.311991       0.332367
                          3       1    1py               0.311991       0.332367
                          3       1    1pz               0.311991       0.332367

                          4       1    1s                0.378879       0.344180

                          5       1    1fx3              0.470440       0.269829
                          5       1    1fx2y             0.470440       0.603356
                          5       1    1fx2z             0.470440       0.603356
                          5       1    1fxy2             0.470440       0.603356
                          5       1    1fxyz             0.470440       1.045044
                          5       1    1fxz2             0.470440       0.603356
                          5       1    1fy3              0.470440       0.269829
                          5       1    1fy2z             0.470440       0.603356
                          5       1    1fyz2             0.470440       0.603356
                          5       1    1fz3              0.470440       0.269829

                          6       1    1px               0.519429       0.628562
                          6       1    1py               0.519429       0.628562
                          6       1    1pz               0.519429       0.628562

                          7       1    1dx2              0.568580       0.612766
                          7       1    1dxy              0.568580       1.061342
                          7       1    1dxz              0.568580       1.061342
                          7       1    1dy2              0.568580       0.612766
                          7       1    1dyz              0.568580       1.061342
                          7       1    1dz2              0.568580       0.612766

                          8       1    1s                0.758637       0.579343

                          9       1    1gx4              0.844875       0.700027
                          9       1    1gx3y             0.844875       1.852097
                          9       1    1gx3z             0.844875       1.852097
                          9       1    1gx2y2            0.844875       2.391047
                          9       1    1gx2yz            0.844875       4.141415
                          9       1    1gx2z2            0.844875       2.391047
                          9       1    1gxy3             0.844875       1.852097
                          9       1    1gxy2z            0.844875       4.141415
                          9       1    1gxyz2            0.844875       4.141415
                          9       1    1gxz3             0.844875       1.852097
                          9       1    1gy4              0.844875       0.700027
                          9       1    1gy3z             0.844875       1.852097
                          9       1    1gy2z2            0.844875       2.391047
                          9       1    1gyz3             0.844875       1.852097
                          9       1    1gz4              0.844875       0.700027

                         10       1    1fx3              0.895075       1.147197
                         10       1    1fx2y             0.895075       2.565211
                         10       1    1fx2z             0.895075       2.565211
                         10       1    1fxy2             0.895075       2.565211
                         10       1    1fxyz             0.895075       4.443076
                         10       1    1fxz2             0.895075       2.565211
                         10       1    1fy3              0.895075       1.147197
                         10       1    1fy2z             0.895075       2.565211
                         10       1    1fyz2             0.895075       2.565211
                         10       1    1fz3              0.895075       1.147197

                         11       1    1px               0.990652       1.408775
                         11       1    1py               0.990652       1.408775
                         11       1    1pz               0.990652       1.408775

                         12       1    1dx2              1.105370       1.961317
                         12       1    1dxy              1.105370       3.397101
                         12       1    1dxz              1.105370       3.397101
                         12       1    1dy2              1.105370       1.961317
                         12       1    1dyz              1.105370       3.397101
                         12       1    1dz2              1.105370       1.961317

                         13       1    1s                1.312410       0.873901

                         14       1    1hx5              1.319300       1.825832
                         14       1    1hx4y             1.319300       5.477495
                         14       1    1hx4z             1.319300       5.477495
                         14       1    1hx3y2            1.319300       8.367012
                         14       1    1hx3yz            1.319300      14.492090
                         14       1    1hx3z2            1.319300       8.367012
                         14       1    1hx2y3            1.319300       8.367012
                         14       1    1hx2y2z           1.319300      18.709208
                         14       1    1hx2yz2           1.319300      18.709208
                         14       1    1hx2z3            1.319300       8.367012
                         14       1    1hxy4             1.319300       5.477495
                         14       1    1hxy3z            1.319300      14.492090
                         14       1    1hxy2z2           1.319300      18.709208
                         14       1    1hxyz3            1.319300      14.492090
                         14       1    1hxz4             1.319300       5.477495
                         14       1    1hy5              1.319300       1.825832
                         14       1    1hy4z             1.319300       5.477495
                         14       1    1hy3z2            1.319300       8.367012
                         14       1    1hy2z3            1.319300       8.367012
                         14       1    1hyz4             1.319300       5.477495
                         14       1    1hz5              1.319300       1.825832

                         15       1    1gx4              1.482770       3.287671
                         15       1    1gx3y             1.482770       8.698360
                         15       1    1gx3z             1.482770       8.698360
                         15       1    1gx2y2            1.482770      11.229534
                         15       1    1gx2yz            1.482770      19.450124
                         15       1    1gx2z2            1.482770      11.229534
                         15       1    1gxy3             1.482770       8.698360
                         15       1    1gxy2z            1.482770      19.450124
                         15       1    1gxyz2            1.482770      19.450124
                         15       1    1gxz3             1.482770       8.698360
                         15       1    1gy4              1.482770       3.287671
                         15       1    1gy3z             1.482770       8.698360
                         15       1    1gy2z2            1.482770      11.229534
                         15       1    1gyz3             1.482770       8.698360
                         15       1    1gz4              1.482770       3.287671

                         16       1    1fx3              1.544330       3.913990
                         16       1    1fx2y             1.544330       8.751947
                         16       1    1fx2z             1.544330       8.751947
                         16       1    1fxy2             1.544330       8.751947
                         16       1    1fxyz             1.544330      15.158817
                         16       1    1fxz2             1.544330       8.751947
                         16       1    1fy3              1.544330       3.913990
                         16       1    1fy2z             1.544330       8.751947
                         16       1    1fyz2             1.544330       8.751947
                         16       1    1fz3              1.544330       3.913990

                         17       1    1px               2.075610       3.551177
                         17       1    1py               2.075610       3.551177
                         17       1    1pz               2.075610       3.551177

                         18       1    1s                2.248340       1.308599

                         19       1    1dx2              2.262180       6.868027
                         19       1    1dxy              2.262180      11.895771
                         19       1    1dxz              2.262180      11.895771
                         19       1    1dy2              2.262180       6.868027
                         19       1    1dyz              2.262180      11.895771
                         19       1    1dz2              2.262180       6.868027

                         20       1    1hx5              2.294020      11.022626
                         20       1    1hx4y             2.294020      33.067878
                         20       1    1hx4z             2.294020      33.067878
                         20       1    1hx3y2            2.294020      50.512017
                         20       1    1hx3yz            2.294020      87.489380
                         20       1    1hx3z2            2.294020      50.512017
                         20       1    1hx2y3            2.294020      50.512017
                         20       1    1hx2y2z           2.294020     112.948304
                         20       1    1hx2yz2           2.294020     112.948304
                         20       1    1hx2z3            2.294020      50.512017
                         20       1    1hxy4             2.294020      33.067878
                         20       1    1hxy3z            2.294020      87.489380
                         20       1    1hxy2z2           2.294020     112.948304
                         20       1    1hxyz3            2.294020      87.489380
                         20       1    1hxz4             2.294020      33.067878
                         20       1    1hy5              2.294020      11.022626
                         20       1    1hy4z             2.294020      33.067878
                         20       1    1hy3z2            2.294020      50.512017
                         20       1    1hy2z3            2.294020      50.512017
                         20       1    1hyz4             2.294020      33.067878
                         20       1    1hz5              2.294020      11.022626

                         21       1    1ix6              2.487090      13.630788
                         21       1    1ix5y             2.487090      45.208208
                         21       1    1ix5z             2.487090      45.208208
                         21       1    1ix4y2            2.487090      78.302913
                         21       1    1ix4yz            2.487090     135.624624
                         21       1    1ix4z2            2.487090      78.302913
                         21       1    1ix3y3            2.487090      92.649256
                         21       1    1ix3y2z           2.487090     207.170035
                         21       1    1ix3yz2           2.487090     207.170035
                         21       1    1ix3z3            2.487090      92.649256
                         21       1    1ix2y4            2.487090      78.302913
                         21       1    1ix2y3z           2.487090     207.170035
                         21       1    1ix2y2z2          2.487090     267.455365
                         21       1    1ix2yz3           2.487090     207.170035
                         21       1    1ix2z4            2.487090      78.302913
                         21       1    1ixy5             2.487090      45.208208
                         21       1    1ixy4z            2.487090     135.624624
                         21       1    1ixy3z2           2.487090     207.170035
                         21       1    1ixy2z3           2.487090     207.170035
                         21       1    1ixyz4            2.487090     135.624624
                         21       1    1ixz5             2.487090      45.208208
                         21       1    1iy6              2.487090      13.630788
                         21       1    1iy5z             2.487090      45.208208
                         21       1    1iy4z2            2.487090      78.302913
                         21       1    1iy3z3            2.487090      92.649256
                         21       1    1iy2z4            2.487090      78.302913
                         21       1    1iyz5             2.487090      45.208208
                         21       1    1iz6              2.487090      13.630788

                         22       1    1fx3              2.818460      15.152391
                         22       1    1fx2y             2.818460      33.881776
                         22       1    1fx2z             2.818460      33.881776
                         22       1    1fxy2             2.818460      33.881776
                         22       1    1fxyz             2.818460      58.684958
                         22       1    1fxz2             2.818460      33.881776
                         22       1    1fy3              2.818460      15.152391
                         22       1    1fy2z             2.818460      33.881776
                         22       1    1fyz2             2.818460      33.881776
                         22       1    1fz3              2.818460      15.152391

                         23       1    1gx4              3.053470      23.967238
                         23       1    1gx3y             3.053470      63.411351
                         23       1    1gx3z             3.053470      63.411351
                         23       1    1gx2y2            3.053470      81.863702
                         23       1    1gx2yz            3.053470     141.792090
                         23       1    1gx2z2            3.053470      81.863702
                         23       1    1gxy3             3.053470      63.411351
                         23       1    1gxy2z            3.053470     141.792090
                         23       1    1gxyz2            3.053470     141.792090
                         23       1    1gxz3             3.053470      63.411351
                         23       1    1gy4              3.053470      23.967238
                         23       1    1gy3z             3.053470      63.411351
                         23       1    1gy2z2            3.053470      81.863702
                         23       1    1gyz3             3.053470      63.411351
                         23       1    1gz4              3.053470      23.967238

                         24       1    1dx2              3.550630      15.116246
                         24       1    1dxy              3.550630      26.182105
                         24       1    1dxz              3.550630      26.182105
                         24       1    1dy2              3.550630      15.116246
                         24       1    1dyz              3.550630      26.182105
                         24       1    1dz2              3.550630      15.116246

                         25       1    1px               3.761240       7.466274
                         25       1    1py               3.761240       7.466274
                         25       1    1pz               3.761240       7.466274

                         26       1    1s                3.809660       1.943456

                         27       1    1hx5              3.904570      62.080772
                         27       1    1hx4y             3.904570     186.242316
                         27       1    1hx4z             3.904570     186.242316
                         27       1    1hx3y2            3.904570     284.489837
                         27       1    1hx3yz            3.904570     492.750852
                         27       1    1hx3z2            3.904570     284.489837
                         27       1    1hx2y3            3.904570     284.489837
                         27       1    1hx2y2z           3.904570     636.138614
                         27       1    1hx2yz2           3.904570     636.138614
                         27       1    1hx2z3            3.904570     284.489837
                         27       1    1hxy4             3.904570     186.242316
                         27       1    1hxy3z            3.904570     492.750852
                         27       1    1hxy2z2           3.904570     636.138614
                         27       1    1hxyz3            3.904570     492.750852
                         27       1    1hxz4             3.904570     186.242316
                         27       1    1hy5              3.904570      62.080772
                         27       1    1hy4z             3.904570     186.242316
                         27       1    1hy3z2            3.904570     284.489837
                         27       1    1hy2z3            3.904570     284.489837
                         27       1    1hyz4             3.904570     186.242316
                         27       1    1hz5              3.904570      62.080772

                         28       1    1fx3              4.611490      45.877243
                         28       1    1fx2y             4.611490     102.584634
                         28       1    1fx2z             4.611490     102.584634
                         28       1    1fxy2             4.611490     102.584634
                         28       1    1fxyz             4.611490     177.681798
                         28       1    1fxz2             4.611490     102.584634
                         28       1    1fy3              4.611490      45.877243
                         28       1    1fy2z             4.611490     102.584634
                         28       1    1fyz2             4.611490     102.584634
                         28       1    1fz3              4.611490      45.877243

                         29       1    1gx4              5.478920     119.631780
                         29       1    1gx3y             5.478920     316.515938
                         29       1    1gx3z             5.478920     316.515938
                         29       1    1gx2y2            5.478920     408.620318
                         29       1    1gx2yz            5.478920     707.751152
                         29       1    1gx2z2            5.478920     408.620318
                         29       1    1gxy3             5.478920     316.515938
                         29       1    1gxy2z            5.478920     707.751152
                         29       1    1gxyz2            5.478920     707.751152
                         29       1    1gxz3             5.478920     316.515938
                         29       1    1gy4              5.478920     119.631780
                         29       1    1gy3z             5.478920     316.515938
                         29       1    1gy2z2            5.478920     408.620318
                         29       1    1gyz3             5.478920     316.515938
                         29       1    1gz4              5.478920     119.631780

                         30       1    1dx2              5.810520      35.791979
                         30       1    1dxy              5.810520      61.993525
                         30       1    1dxz              5.810520      61.993525
                         30       1    1dy2              5.810520      35.791979
                         30       1    1dyz              5.810520      61.993525
                         30       1    1dz2              5.810520      35.791979

                         31       1    1px               7.480640      17.634515
                         31       1    1py               7.480640      17.634515
                         31       1    1pz               7.480640      17.634515

                         32       1    1s                8.569100       3.569534

                         33       1    1fx3             10.195600     273.453335
                         33       1    1fx2y            10.195600     611.460245
                         33       1    1fx2z            10.195600     611.460245
                         33       1    1fxy2            10.195600     611.460245
                         33       1    1fxyz            10.195600    1059.080212
                         33       1    1fxz2            10.195600     611.460245
                         33       1    1fy3             10.195600     273.453335
                         33       1    1fy2z            10.195600     611.460245
                         33       1    1fyz2            10.195600     611.460245
                         33       1    1fz3             10.195600     273.453335

                         34       1    1dx2             17.120900     237.181597
                         34       1    1dxy             17.120900     410.810577
                         34       1    1dxz             17.120900     410.810577
                         34       1    1dy2             17.120900     237.181597
                         34       1    1dyz             17.120900     410.810577
                         34       1    1dz2             17.120900     237.181597

                         35       1    1s               18.515300       6.361480

                         36       1    1px              18.749800      55.614225
                         36       1    1py              18.749800      55.614225
                         36       1    1pz              18.749800      55.614225

                         37       1    1px              66.987000     273.167010
                         37       1    1py              66.987000     273.167010
                         37       1    1pz              66.987000     273.167010

                         38       1    1s               72.692500      17.743010

                         39       1    1s              330.814000      55.283815

       Atomic covalent radius [Angstrom]:                                  0.750

       Atomic van der Waals radius [Angstrom]:                             1.550

     The atoms of this atomic kind are PAW atoms (GAPW):
       Hard Gaussian function radius:                                      1.512
       Rho0 radius:                                                        1.512
       Maximum GTO radius used for PAW projector construction:            24.566

     GAPW Soft Basis Set                                            cc-pV5Z_soft

       Number of orbital shell sets:                                           6
       Number of orbital shells:                                              21
       Number of primitive Cartesian functions:                               18
       Number of Cartesian basis functions:                                  126
       Number of spherical basis functions:                                   91
       Norm type:                                                              2

       Normalised Cartesian orbitals:

                        Set   Shell   Orbital            Exponent    Coefficient

                          1       1    1px               3.995000       0.000000
                                                         1.587000       2.538991
                                                         0.653300       0.000000
                                                         0.268600       0.000000
                                                         0.106700       0.000000
                          1       1    1py               3.995000       0.000000
[...]
 -                                T I M I N G                                  -
 -                                                                             -
 -------------------------------------------------------------------------------
 SUBROUTINE                       CALLS  ASD         SELF TIME        TOTAL TIME
                                MAXIMUM       AVERAGE  MAXIMUM  AVERAGE  MAXIMUM
 CP2K                                 1  1.0    0.075    0.155 3005.439 3005.440
 qs_energies                          1  2.0    0.000    0.001 3001.204 3001.937
 mp2_main                             1  3.0    0.000    0.001 2513.599 2514.332
 mp2_gpw_main                         1  4.0    0.000    0.001 2510.804 2510.864
 rpa_ri_compute_en                    1  5.0    0.001    0.002 2445.808 2445.813
 rpa_num_int                          1  6.0    0.002    0.002 2442.734 2442.908
 compute_GW_self_energy             100  7.0    0.012    0.027 1916.778 1926.950
 compute_GW_self_energy_deep        100  8.0 1342.849 1344.424 1913.913 1924.084
 parallel_gemm_fm                   371  8.4    0.001    0.001  681.784  693.293
 parallel_gemm_fm_gemm              371  9.4    0.001    0.001  681.783  693.292
 cp_fm_gemm                         371 10.4  681.782  693.291  681.782  693.291
 start_bse_calculation                1  7.0    0.001    0.006  502.371  502.375
 scf_env_do_scf                       1  3.0    0.000    0.000  480.583  480.682
 scf_env_do_scf_inner_loop           75  4.0    0.002    0.005  480.582  480.682
 qs_ks_build_kohn_sham_matrix        76  7.0    0.010    0.012  440.608  440.844
 qs_ks_update_qs_env                 75  5.0    0.001    0.001  439.190  439.423
 rebuild_ks_matrix                   75  6.0    0.000    0.000  439.178  439.411
 cp_fm_syevd                         81  7.0    0.001    0.001  405.040  405.800
 cp_fm_redistribute_end              81  8.0  202.460  405.355  202.602  405.421
 cp_fm_syevd_base                    81  8.0  201.897  403.943  201.897  403.943
 hfx_ks_matrix                       76  8.0    0.003    0.004  373.705  374.015
 integrate_four_center               76  9.0    5.222    7.386  373.697  374.007
 integrate_four_center_main          76 10.0    5.758   74.864  148.538  268.797
 integrate_four_center_bin        39481 11.0  142.780  262.219  142.780  262.219
 create_hermitian_form_of_ABBA        1  8.0    0.001    0.002  259.493  259.558
 diagonalize_C                        1  8.0    0.002    0.003  225.600  225.614
 cp_fm_power                          2  7.5    0.971    1.940  207.915  208.008
 mp_sync                           1733 11.6  154.412  204.473  154.412  204.473
 mp2_ri_gpw_compute_in                1  5.0    0.054    0.070   64.805   64.821
 mp2_ri_gpw_compute_in_loop           1  6.0    0.000    0.000   64.580   64.614
 calc_screening_functions             1 10.0   53.476   55.484   60.377   62.346
 contract_B_L                         4  7.0    0.168    0.186   51.891   61.901
 mp_cart_create                     560  9.9   40.701   50.815   40.702   50.816
 dbt_pgrid_create_expert             84 10.8    0.000    0.000   40.658   50.773
 mp2_eri_3c_integrate                 1  7.0    0.041    0.071   10.928   50.142
 integrate_set_3c                 31415  8.0   10.012   46.825   10.887   50.075
 qs_scf_new_mos                      75  5.0    0.001    0.001   22.848   22.926
 eigensolver_symm                    76  6.0    0.004    0.004   20.894   20.914
 prepare_gapw_den                    76  8.0    0.002    0.003   20.101   20.118
 mp_sum_d                         16549  6.9   17.690   20.047   17.690   20.047
 sum_up_and_integrate                76  8.0    0.001    0.001   18.638   19.248
 integrate_v_rspace                  76  9.0    0.002    0.002   18.633   19.244
 calculate_rho_atom                 304  9.0    3.095   17.345    3.095   17.346
 mp_sum_dv                        56078 10.6   16.068   16.795   16.068   16.795
 qs_rho_update_rho_low               76  5.0    0.001    0.001   16.764   16.767
 mp_alltoall_d11v                  1432  9.5   15.941   16.518   15.941   16.518
 calculate_rho_elec                  76  6.0    0.071    0.075   16.025   16.028
 mp_waitall_1                    177382 12.0   10.154   15.697   10.154   15.697
 calculate_vxc_atom                  76  8.0    0.060    1.116   14.093   14.094
 rs_gather_matrices                  76 10.0    0.011    0.045   13.566   13.810
 grid_integrate_task_list            76 10.0    0.225   13.248    0.225   13.248
 powell_optimize                4874473 11.0   12.168   13.132   12.168   13.132
 rpa_num_int_RPA_matrix_operati     100  7.0    0.001    0.003   13.022   13.023
 gaVxcgb_GC                         150  9.0    0.164   12.909    0.164   12.909
 density_rs2pw                       76  7.0    0.003    0.004   11.595   12.852
 cp_fm_syrk                           2  8.5   12.605   12.659   12.605   12.659
 transfer_rs2pw                     381  8.4    0.007    0.009   10.929   12.199
 dbt_total                            8  8.0    0.000    0.000   11.515   11.515
 dbt_contract                         4  9.0    0.001    0.001    9.769   10.702
 calc_mat_Q                         100  8.0    0.000    0.001   10.293   10.381
 contract_S_to_Q                    100  9.0    0.001    0.001   10.274   10.362
 grid_collocate_task_list            76  7.0    3.593    9.866    3.593    9.866
 mp_waitany                        7324 11.5    6.483    8.708    6.483    8.708
 transfer_rs2pw_250                 153 10.0    0.248    0.287    4.881    8.463
 calc_pair_dist_radii                 1 10.0    2.184    2.242    7.452    8.322
 create_B                             1  8.0    0.000    0.001    8.153    8.187
 dbt_tas_multiply                     8 11.5    0.000    0.000    8.044    8.046
 dbt_tas_total                        8 12.5    0.012    0.034    8.030    8.030
 create_A                             1  8.0    0.008    0.011    7.974    8.001
 pw_poisson_solve                    76  8.0    0.251    0.286    6.676    6.680
 dbt_tas_dbm                          8 13.5    0.000    0.000    6.417    6.417
 qs_energies_init_hamiltonians        1  3.0    0.000    0.000    6.336    6.336
 fft_wrap_pw1pw2                   1587  9.9    0.017    0.020    5.767    6.328
 build_core_hamiltonian_matrix        1  4.0    0.000    0.000    6.305    6.305
 overlap_condnum                      1  5.0    0.000    0.000    6.279    6.302
 transfer_rs2pw_90                   76  9.0    0.066    0.089    2.664    6.200
 dbm_multiply                         8 15.5    5.678    6.089    5.678    6.089
 dbt_tas_mm_1N                        6 14.5    0.000    0.000    5.663    6.074
 arnoldi_conjugate_gradient           5  6.0    0.069    0.084    5.951    5.951
 potential_pw2rs                     76 10.0    0.006    0.006    4.840    5.465
 fft_wrap_pw1pw2_250               1131 11.1    0.235    0.256    4.426    4.999
 integrate_four_center_dist_KS       76 10.0    0.166    0.184    4.914    4.919
 mp_isendrecv_dv                 155344 12.0    1.444    4.654    1.444    4.654
 fft3d_pb                          1131 12.1    0.803    0.889    3.888    4.462
 ps_wavelet_solve                    76  9.0    3.012    3.738    4.232    4.459
 transfer_pw2rs                     381 10.6    0.004    0.006    4.058    4.273
 integrate_four_center_getP          76 10.0    0.218    0.230    4.047    4.080
 mp_alltoall_z22v                  2718 14.0    3.011    3.662    3.011    3.662
 dbcsr_sym_matrix_vector_mult     10015  7.0    0.160    0.175    3.052    3.535
 integrate_four_center_load          76 10.0    0.001    0.001    2.260    3.524
 hfx_load_balance                     1 11.0    0.000    0.001    2.260    3.524
 mp_sum_l                          1010  6.3    2.163    3.417    2.163    3.417
 mp_alltoall_d54                     76 10.0    0.890    3.397    0.890    3.397
 create_integ_mat                     4  6.0    0.009    0.017    3.062    3.363
 hfx_load_balance_range               1 12.0    0.000    0.000    2.043    3.307
 abc_contract                     31415  9.0    0.875    3.305    0.875    3.305
 array2fm                             4  7.0    0.000    0.000    2.806    3.272
 integrate_vhg0_rspace               76  8.0    0.977    1.022    3.231    3.260
 cp_fm_cholesky_decompose           102  9.0    2.842    2.986    2.842    2.986
 cp_fm_cholesky_invert              101  8.0    2.746    2.810    2.746    2.810
 create_qs_kind_set                   1  2.0    0.000    0.000    2.781    2.782
 read_qs_kind                         4  3.0    1.469    1.501    2.781    2.782
 transfer_rs2pw_30                   76  9.0    0.878    1.001    2.498    2.694
 compute_Erpa_by_freq_int           100  8.0    0.013    0.029    2.592    2.593
 fm_general_add_bse                   5 10.2    0.000    0.000    2.513    2.587
 mp_sum_dm                         4640  7.7    2.407    2.560    2.407    2.560
 dbt_copy                            12 10.1    0.001    0.001    1.473    2.479
 mp_sendrecv_dv                   77672 10.0    2.270    2.345    2.270    2.345
 dbcsr_add_d                      15083  7.0    0.014    0.017    0.254    2.343
 dbcsr_add_anytype                15083  8.0    0.018    0.222    0.240    2.327
 qs_vxc_create                       76  8.0    0.001    0.001    2.275    2.275
 xc_vxc_pw_create                    75  9.0    0.076    0.081    2.274    2.274
 dbt_tas_estimate_result_nze          4 12.0    0.020    0.027    2.087    2.087
 gspace_mixing                       74  5.0    0.069    0.073    1.941    1.942
 transfer_pw2rs_30                   76 12.0    0.786    0.872    1.763    1.827
 dbt_reshape                          8 11.6    0.150    0.173    0.744    1.767
 dbcsr_rep_row_to_rep_col_vec     10015  8.0    0.056    0.074    0.821    1.764
 mp_bcast_dv                      10096  9.0    0.720    1.757    0.720    1.757
 copy_dbcsr_to_fm                   110  6.6    0.003    0.003    1.644    1.754
 calculate_rho0_atom                304  9.0    1.417    1.737    1.417    1.737
 xc_pw_derive                       450 11.0    0.002    0.002    1.618    1.710
 dbcsr_complete_redistribute        264  8.4    0.181    0.216    1.572    1.653
 broyden_mixing                      74  6.0    1.390    1.511    1.570    1.607
 cube_transpose_2                   757 12.8    0.046    0.058    0.939    1.587
 dbcsr_multiply_generic             128  8.1    0.009    0.011    1.357    1.529
 dbt_communicate_buffer               8 12.6    0.005    0.005    0.486    1.501
 mp_waitall_2                        52 15.7    0.459    1.500    0.459    1.500
 dbcsr_finalize                   16302 10.2    0.022    0.471    0.220    1.463
 compute_vec_Sigma_x_minus_vxc_       1  4.0    0.000    0.000    1.453    1.453
 transfer_pw2rs_250                 153 11.0    0.235    0.260    1.162    1.400
 array2fm_info                        4  8.0    1.238    1.379    1.266    1.399
 fft3d_ps                           456 11.5    0.053    0.089    1.298    1.392
 mp2_main_alloc_hfx                   1  4.0    0.656    1.388    0.656    1.388
 mp_sum_i                            22  9.8    0.734    1.386    0.734    1.386
 restraint_control                    1  2.0    0.000    0.000    0.733    1.385
 dbt_remap                            8 10.0    0.003    0.004    1.365    1.379
 dbcsr_col_vec_to_rep_row         10015  8.0    0.073    0.090    1.034    1.364
 parser_read_line                314233  4.0    0.105    0.128    1.312    1.318
 calculate_dm_sparse                 75  6.0    0.001    0.001    1.196    1.250
 cp_dbcsr_plus_fm_fm_t               75  7.0    0.001    0.002    1.195    1.247
 parser_read_line_low               338  5.0    0.094    0.572    1.207    1.219
 xc_pw_divergence                    75 10.0    0.001    0.001    1.105    1.198
 cube_transpose_4                   529 13.6    0.049    0.059    0.951    1.157
 xc_rho_set_and_dset_create          75 10.0    0.034    0.037    1.054    1.153
 array2fm_fill                        4  8.0    0.415    0.547    0.747    1.147
 put_rho0_on_grid                    76  9.0    0.086    0.128    1.113    1.131
 broadcast_input_information        338  6.0    0.230    0.254    1.113    1.129
 transfer_rs2pw_10                   76  9.0    0.230    0.262    0.880    1.087
 Vh_1c_gg_integrals                  76  8.0    0.026    1.038    1.054    1.077
 dbt_nd_mp_comm                       8 11.0    0.000    0.000    0.954    1.042
 mult_B_with_W                        1  8.0    0.000    0.000    0.865    1.016
 cp_fm_redistribute_start            81  8.0    0.382    0.742    0.540    0.994
 cube_transpose_1                   830 13.1    0.050    0.073    0.681    0.958
 dbcsr_desymmetrize_deep            112  7.5    0.042    0.052    0.815    0.876
 cp_fm_to_fm_submat_general         112 10.1    0.460    0.835    0.460    0.835
 mp_wait                            180  9.0    0.331    0.832    0.331    0.832
 hybrid_alltoall_any                368 11.0    0.414    0.489    0.745    0.831
 copy_fm_to_dbcsr                   154  8.1    0.001    0.001    0.778    0.808
 multiply_cannon                    128  9.1    0.018    0.024    0.627    0.789
 fm_general_add_bse_4_buf_from_       1 10.0    0.517    0.785    0.517    0.785
 update_ks_atom                      76  8.0    0.088    0.317    0.528    0.764
 fm_general_add_bse_1_setup           5 11.2    0.499    0.760    0.499    0.760
 dbcsr_merge_all                  15704 10.9    0.032    0.522    0.178    0.759
 cube_transpose_3                   602 12.7    0.058    0.074    0.646    0.759
 transfer_pw2rs_10                   76 12.0    0.227    0.236    0.705    0.756
 array2fm_buffer_send                 4  8.0    0.663    0.753    0.663    0.753
 rs_scatter_matrices                 76  7.0    0.002    0.004    0.722    0.748
 cp_fm_symm                          76  7.0    0.718    0.744    0.718    0.744
 multiply_cannon_loop               128 10.1    0.025    0.046    0.583    0.739
 calculate_rho_atom_coeff            76  6.0    0.133    0.262    0.738    0.739
 dbt_split_blocks_generic            20  8.8    0.289    0.311    0.701    0.726
 make_m2s                           256  9.1    0.006    0.007    0.633    0.720
 fm_general_add_bse_5_comm_buff       5 11.2    0.000    0.001    0.415    0.677
 communicate_buffer                   5 12.2    0.002    0.002    0.415    0.677
 fft_wrap_pw1pw2_90                 152 10.5    0.008    0.024    0.580    0.665
 make_images                        256 10.1    0.088    0.103    0.575    0.658
 dbcsr_iterator_start            118118  8.7    0.255    0.512    0.282    0.656
 mp_alltoall_d45                     77 10.0    0.380    0.654    0.380    0.654
 dbt_tas_replicate                    8 13.5    0.316    0.376    0.607    0.628
 dbt_tas_reshape                     10 13.8    0.001    0.001    0.607    0.627
 mp_isend_dm3                      3660 11.5    0.224    0.623    0.224    0.623
 mp_alltoall_i11v                   904  9.3    0.617    0.619    0.617    0.619
 dbm_reserve_blocks                  71 14.2    0.565    0.610    0.565    0.610
 mp_bcast_i_src                    1352  7.0    0.475    0.607    0.475    0.607
 ao_to_mo_and_store_B_E_Ex_gw_1       6  7.0    0.173    0.282    0.438    0.586
 mp_rank_compare                    456 12.5    0.566    0.579    0.566    0.579
 dbt_split_copyback                   4 10.0    0.383    0.412    0.521    0.572
 truncate_BSE_matrices                1  8.0    0.001    0.001    0.274    0.561
 init_scf_run                         1  3.0    0.000    0.000    0.560    0.560
 dbcsr_copy                       40653  7.5    0.235    0.468    0.326    0.558
 dbt_tas_reserve_blocks_index        63 13.1    0.008    0.009    0.502    0.545
 multiply_cannon_multrec           2608 11.1    0.389    0.533    0.390    0.534
 ao_to_mo_and_store_B_E_Ex_bse_       6  7.0    0.160    0.258    0.406    0.531
 allocate_matrices_gw                 1  7.0    0.004    0.004    0.356    0.530
 fm_general_add_bse_4_buf_from_       1 10.0    0.474    0.530    0.474    0.530
 dbcsr_sym_matrix_vector_mult_l   10015  8.0    0.124    0.417    0.238    0.528
 ao_to_mo_and_store_B_mult_gw_1       6  7.0    0.000    0.000    0.379    0.515
 make_images_data                   256 11.1    0.005    0.005    0.429    0.507
 pw_poisson_rebuild                  76  9.0    0.000    0.000    0.500    0.506
 ps_wavelet_create                    1 10.0    0.000    0.000    0.499    0.506
 RS_z_slice_distribution              1 11.0    0.423    0.497    0.499    0.506
 cp_fm_create                       389  7.8    0.398    0.500    0.398    0.500
 get_vec_sigma_x                      1  8.0    0.001    0.001    0.312    0.497
 mp_isend_dv                      14247 12.9    0.299    0.495    0.299    0.495
 mp_sum_iv                          338  9.5    0.291    0.483    0.291    0.483
 cp_fm_uplo_to_full                 103  8.0    0.352    0.474    0.352    0.474
 transfer_pw2rs_90                   76 12.0    0.054    0.059    0.423    0.465
 mp_alltoall_i                       42 13.8    0.350    0.462    0.350    0.462
 ao_to_mo_and_store_B_mult_bse_       6  7.0    0.000    0.000    0.351    0.460
 mp_bcast_dm                       3040  9.0    0.440    0.454    0.440    0.454
 mp_bcast_am_src                    338  7.0    0.359    0.407    0.401    0.452
 qs_init_subsys                       1  2.0    0.011    0.020    0.443    0.443
 mp_alltoall_i22                    376  9.2    0.373    0.436    0.373    0.436
 cp2k_distribution_to_z_slices       76  9.0    0.140    0.148    0.399    0.425
 fft_wrap_pw1pw2_30                 152 10.5    0.002    0.013    0.406    0.418
 dbt_reserve_blocks_index            36 10.8    0.009    0.010    0.375    0.416
 fm_general_add_bse_2_comm_entr       5 11.2    0.000    0.000    0.292    0.382
 yz_to_xz                           228 14.0    0.034    0.052    0.319    0.376
 qs_env_setup                         1  3.0    0.000    0.000    0.343    0.358
 qs_env_rebuild_pw_env                2  3.5    0.000    0.000    0.341    0.357
 pw_env_rebuild                       1  5.0    0.000    0.001    0.341    0.356
 dbt_reserve_blocks_index_array      28 10.6    0.000    0.000    0.314    0.350
 xc_functional_eval                 375 10.9    0.001    0.002    0.261    0.346
 pbe_lda_eval                       375 11.9    0.260    0.346    0.260    0.346
 fft_wrap_pw1pw2_10                 152 10.5    0.001    0.008    0.338    0.341
 dbt_distribution_new_expert         76 10.1    0.002    0.002    0.284    0.328
 write_mo_set_to_restart             75  5.0    0.001    0.008    0.015    0.323
 dbcsr_iterator_stop             118118  8.7    0.162    0.287    0.183    0.316
 write_mo_set_low                     4  6.0    0.000    0.001    0.013    0.315
 cp_fm_write_unformatted              4  7.0    0.011    0.301    0.013    0.314
 mp_irecv_dm3                      3660 11.5    0.089    0.308    0.089    0.308
 -------------------------------------------------------------------------------

 The number of warnings for this run is : 2
 
 -------------------------------------------------------------------------------
  **** **** ******  **  PROGRAM ENDED AT                 2025-04-23 21:40:45.288
 ***** ** ***  *** **   PROGRAM RAN ON                              i01r10c05s03
 **    ****   ******    PROGRAM RAN BY                                   di38fab
 ***** **    ** ** **   PROGRAM PROCESS ID                               3606588
  **** **  *******  **  PROGRAM STOPPED IN /hppfs/scratch/04/di38fab/07_MOL_non_
                                           aug/05_MOL_non_aug/05_MOL/aUKBqsEOTmq
                                           69kFe5R_nOg/5k_set_final_qzvp/IQUJEK/
                                           cc-pV5Z/GW+BSE
