SIRIUS 7.5.2, git hash: https://api.github.com/repos/electronic-structure/SIRIUS/git/ref/tags/v7.5.2
 DBCSR| CPU Multiplication driver                                           XSMM (U)
 DBCSR| Multrec recursion limit                                              512 (U)
 DBCSR| Multiplication stack size                                           1000 (D)
 DBCSR| Maximum elements for images                                    UNLIMITED (U)
 DBCSR| Multiplicative factor virtual images                                   1 (U)
 DBCSR| Use multiplication densification                                       T (D)
 DBCSR| Multiplication size stacks                                             3 (U)
 DBCSR| Use memory pool for CPU allocation                                     F (U)
 DBCSR| Number of 3D layers                                               SINGLE (U)
 DBCSR| Use MPI memory allocation                                              F (U)
 DBCSR| Use RMA algorithm                                                      F (U)
 DBCSR| Use Communication thread                                               T (U)
 DBCSR| Communication thread load                                             75 (D)
 DBCSR| MPI: My process id                                                     0
 DBCSR| MPI: Number of processes                                             192
 DBCSR| OMP: Current number of threads                                         4
 DBCSR| OMP: Max number of threads                                             4
 DBCSR| Split modifier for TAS multiplication algorithm                  1.0E+00 (U)


  **** **** ******  **  PROGRAM STARTED AT               2025-03-15 09:05:08.859
 ***** ** ***  *** **   PROGRAM STARTED ON                 n2cn0449.ab2021.local
 **    ****   ******    PROGRAM STARTED BY                              metdyn02
 ***** **    ** ** **   PROGRAM PROCESS ID                               3506697
  **** **  *******  **  PROGRAM STARTED IN /scratch/hpc-prf-metdyn/metdyn02_Remi
                                           /10_MOL/05_MOL/aUKBqsEOTmq69kFe5R_nOg
                                           /5k_set_final_qzvp/JAWLEY/TZVP/GW+BSE
                                           /RILIM

 CP2K| version string:                 CP2K version 2025.1 (Development Version)
 CP2K| source code revision number:                                  git:f0c7327
 CP2K| cp2kflags: omp libint fftw3 libxc libgrpp elpa parallel scalapack mpi_f08
 CP2K|             cosma xsmm plumed2 spglib sirius libvori libbqb libvdwxc hdf5
 CP2K| is freely available from                            https://www.cp2k.org/
 CP2K| Program compiled at                          Wed Mar 12 18:25:30 CET 2025
 CP2K| Program compiled on                                              n2login1
 CP2K| Program compiled for                                                local
 CP2K| Data directory path    /opt/software/pc2/EB-SW/software/CP2K/2024.1-foss-
 CP2K| Input file name                                                    GW.inp

 GLOBAL| Force Environment number                                              1
 GLOBAL| Basis set file name            /scratch/hpc-prf-metdyn/metdyn02_Remi/BA
 GLOBAL| Potential file name            /pc2/groups/hpc-prf-metdyn/metdyn02_Remi
 GLOBAL| MM Potential file name                                     MM_POTENTIAL
 GLOBAL| Coordinate file name                                      __STD_INPUT__
 GLOBAL| Method name                                                        CP2K
 GLOBAL| Project name                                                       MoS2
 GLOBAL| Run type                                                         ENERGY
 GLOBAL| FFT library                                                       FFTW3
 GLOBAL| Diagonalization library                                            ELPA
 GLOBAL| DGEMM library                                                      BLAS
 GLOBAL| Minimum number of eigenvectors for ELPA usage                        16
 GLOBAL| Orthonormality check for eigenvectors                          DISABLED
 GLOBAL| Matrix multiplication library                                     COSMA
 GLOBAL| All-to-all communication in single precision                          F
 GLOBAL| FFTs using library dependent lengths                                  F
 GLOBAL| Grid backend                                                       AUTO
 GLOBAL| Global print level                                               MEDIUM
 GLOBAL| MPI I/O enabled                                                       T
 GLOBAL| Total number of message passing processes                           192
 GLOBAL| Number of threads for this process                                    4
 GLOBAL| This output is from process                                           0
 GLOBAL| OpenMP stack size per thread (OMP_STACKSIZE)                    default
 GLOBAL| CPU model name                          AMD EPYC 7763 64-Core Processor
 GLOBAL| CPUID                                                              1002

 MEMORY| system memory details [Kb]
 MEMORY|                        rank 0           min           max       average
 MEMORY| MemTotal            263899260     263899260     263899264     263899260
 MEMORY| MemFree             241576472     241576472     244736616     242663031
 MEMORY| Buffers                204820         83672        204820        142567
 MEMORY| Cached                8244760       6102032       8244760       7171728
 MEMORY| Slab                  2317264       1975432       4019944       2573491
 MEMORY| SReclaimable           490848        352396        880460        516252
 MEMORY| MemLikelyFree       250516900     249474700     251366356     250493580


 *** Fundamental physical constants (SI units) ***

 *** Literature: B. J. Mohr and B. N. Taylor,
 ***             CODATA recommended values of the fundamental physical
 ***             constants: 2006, Web Version 5.1
 ***             http://physics.nist.gov/constants

 Speed of light in vacuum [m/s]                             2.99792458000000E+08
 Magnetic constant or permeability of vacuum [N/A**2]       1.25663706143592E-06
 Electric constant or permittivity of vacuum [F/m]          8.85418781762039E-12
 Planck constant (h) [J*s]                                  6.62606896000000E-34
 Planck constant (h-bar) [J*s]                              1.05457162825177E-34
 Elementary charge [C]                                      1.60217648700000E-19
 Electron mass [kg]                                         9.10938215000000E-31
 Electron g factor [ ]                                     -2.00231930436220E+00
 Proton mass [kg]                                           1.67262163700000E-27
 Fine-structure constant                                    7.29735253760000E-03
 Rydberg constant [1/m]                                     1.09737315685270E+07
 Avogadro constant [1/mol]                                  6.02214179000000E+23
 Boltzmann constant [J/K]                                   1.38065040000000E-23
 Atomic mass unit [kg]                                      1.66053878200000E-27
 Bohr radius [m]                                            5.29177208590000E-11

 *** Conversion factors ***

 [u] -> [a.u.]                                              1.82288848426455E+03
 [Angstrom] -> [Bohr] = [a.u.]                              1.88972613288564E+00
 [a.u.] = [Bohr] -> [Angstrom]                              5.29177208590000E-01
 [a.u.] -> [s]                                              2.41888432650478E-17
 [a.u.] -> [fs]                                             2.41888432650478E-02
 [a.u.] -> [J]                                              4.35974393937059E-18
 [a.u.] -> [N]                                              8.23872205491840E-08
 [a.u.] -> [K]                                              3.15774647902944E+05
 [a.u.] -> [kJ/mol]                                         2.62549961709828E+03
 [a.u.] -> [kcal/mol]                                       6.27509468713739E+02
 [a.u.] -> [Pa]                                             2.94210107994716E+13
 [a.u.] -> [bar]                                            2.94210107994716E+08
 [a.u.] -> [atm]                                            2.90362800883016E+08
 [a.u.] -> [eV]                                             2.72113838565563E+01
 [a.u.] -> [Hz]                                             6.57968392072181E+15
 [a.u.] -> [1/cm] (wave numbers)                            2.19474631370540E+05
 [a.u./Bohr**2] -> [1/cm]                                   5.14048714338585E+03
 

 CELL_TOP| Volume [angstrom^3]:                                     27000.000000
 CELL_TOP| Vector a [angstrom    30.000     0.000     0.000   |a| =    30.000000
 CELL_TOP| Vector b [angstrom     0.000    30.000     0.000   |b| =    30.000000
 CELL_TOP| Vector c [angstrom     0.000     0.000    30.000   |c| =    30.000000
 CELL_TOP| Angle (b,c), alpha [degree]:                                90.000000
 CELL_TOP| Angle (a,c), beta  [degree]:                                90.000000
 CELL_TOP| Angle (a,b), gamma [degree]:                                90.000000
 CELL_TOP| Numerically orthorhombic:                                         YES
 CELL_TOP| Periodicity                                                      NONE

 GENERATE|  Preliminary Number of Bonds generated:                             0
 GENERATE|  Achieved consistency in connectivity generation.

 CELL| Volume [angstrom^3]:                                         27000.000000
 CELL| Vector a [angstrom]:      30.000     0.000     0.000   |a| =    30.000000
 CELL| Vector b [angstrom]:       0.000    30.000     0.000   |b| =    30.000000
 CELL| Vector c [angstrom]:       0.000     0.000    30.000   |c| =    30.000000
 CELL| Angle (b,c), alpha [degree]:                                    90.000000
 CELL| Angle (a,c), beta  [degree]:                                    90.000000
 CELL| Angle (a,b), gamma [degree]:                                    90.000000
 CELL| Numerically orthorhombic:                                             YES
 CELL| Periodicity                                                          NONE

 CELL_REF| Volume [angstrom^3]:                                     27000.000000
 CELL_REF| Vector a [angstrom    30.000     0.000     0.000   |a| =    30.000000
 CELL_REF| Vector b [angstrom     0.000    30.000     0.000   |b| =    30.000000
 CELL_REF| Vector c [angstrom     0.000     0.000    30.000   |c| =    30.000000
 CELL_REF| Angle (b,c), alpha [degree]:                                90.000000
 CELL_REF| Angle (a,c), beta  [degree]:                                90.000000
 CELL_REF| Angle (a,b), gamma [degree]:                                90.000000
 CELL_REF| Numerically orthorhombic:                                         YES
 CELL_REF| Periodicity                                                      NONE

 *******************************************************************************
 *******************************************************************************
 **                                                                           **
 **     #####                         ##              ##                      **
 **    ##   ##            ##          ##              ##                      **
 **   ##     ##                       ##            ######                    **
 **   ##     ##  ##   ##  ##   #####  ##  ##   ####   ##    #####    #####    **
 **   ##     ##  ##   ##  ##  ##      ## ##   ##      ##   ##   ##  ##   ##   **
 **   ##  ## ##  ##   ##  ##  ##      ####     ###    ##   ######   ######    **
 **    ##  ###   ##   ##  ##  ##      ## ##      ##   ##   ##       ##        **
 **     #######   #####   ##   #####  ##  ##  ####    ##    #####   ##        **
 **           ##                                                    ##        **
 **                                                                           **
 **                                                ... make the atoms dance   **
 **                                                                           **
 **            Copyright (C) by CP2K developers group (2000-2025)             **
 **                      J. Chem. Phys. 152, 194103 (2020)                    **
 **                                                                           **
 *******************************************************************************

 DFT| Spin restricted Kohn-Sham (RKS) calculation                            RKS
 DFT| Multiplicity                                                             1
 DFT| Number of spin states                                                    1
 DFT| Charge                                                                   0
 DFT| Self-interaction correction (SIC)                                       NO
 DFT| Cutoffs: density                                              1.000000E-10
 DFT|          gradient                                             1.000000E-10
 DFT|          tau                                                  1.000000E-10
 DFT|          cutoff_smoothing_range                               0.000000E+00
 DFT| XC density smoothing                                                  NONE
 DFT| XC derivatives                                                          PW

 FUNCTIONAL| PBE:
 FUNCTIONAL| J.P.Perdew, K.Burke, M.Ernzerhof, Phys. Rev. Letter, vol. 77, n 18,
 FUNCTIONAL|  pp. 3865-3868, (1996)sx=0.750sc=1.000{spin unpolarized}           


 QS| Method:                                                                GAPW
 QS| Density plane wave grid type                        NON-SPHERICAL FULLSPACE
 QS| Number of grid levels:                                                    4
 QS| Density cutoff [a.u.]:                                                250.0
 QS| Multi grid cutoff [a.u.]: 1) grid level                               250.0
 QS|                           2) grid level                                83.3
 QS|                           3) grid level                                27.8
 QS|                           4) grid level                                 9.3
 QS| Grid level progression factor:                                          3.0
 QS| Relative density cutoff [a.u.]:                                        50.0
 QS| Interaction thresholds: eps_pgf_orb:                                1.0E-12
 QS|                         eps_filter_matrix:                          0.0E+00
 QS|                         eps_core_charge:                            1.0E-14
 QS|                         eps_rho_gspace:                             1.0E-12
 QS|                         eps_rho_rspace:                             1.0E-12
 QS|                         eps_gvg_rspace:                             1.0E-06
 QS|                         eps_ppl:                                    1.0E-02
 QS|                         eps_ppnl:                                   1.0E-08
 QS| GAPW|      One center basis from orbital basis primitives
 QS| GAPW|                   eps_fit:                                    1.0E-04
 QS| GAPW|                   eps_iso:                                    1.0E-12
 QS| GAPW|                   eps_svd:                                    1.0E-08
 QS| GAPW|                   eps_cpc:                                    1.0E-12
 QS| GAPW|   atom-r-grid: quadrature:                                     GC_LOG
 QS| GAPW|      atom-s-grid:  max l :                                          8
 QS| GAPW|      max_l_rho0 :                                                   2


 ATOMIC KIND INFORMATION

  1. Atomic kind: C                                     Number of atoms:       8

     Orbital Basis Set                                        aug-TZVP-MOLOPT-ae

       Number of orbital shell sets:                                           2
       Number of orbital shells:                                              16
       Number of primitive Cartesian functions:                               13
       Number of Cartesian basis functions:                                   71
       Number of spherical basis functions:                                   56
       Norm type:                                                              2

       Normalised Cartesian orbitals:

                        Set   Shell   Orbital            Exponent    Coefficient

                          1       1    1s                0.040000       0.000000
                                                         0.097098       0.019281
                                                         0.283960       0.027513
                                                         0.806764       0.003692
                                                         2.441624       0.446183
                                                         6.739673       1.752510
                                                        34.417212       0.637474

                          1       2    2s                0.040000       0.000000
                                                         0.097098       0.029117
                                                         0.283960       0.094997
                                                         0.806764       0.362633
                                                         2.441624      -0.104551
                                                         6.739673      -0.288836
                                                        34.417212       1.102934

                          1       3    3s                0.040000       0.000000
                                                         0.097098       0.047046
                                                         0.283960       0.169545
                                                         0.806764      -0.252838
                                                         2.441624      -0.199197
                                                         6.739673      -0.168746
                                                        34.417212      -6.120053

                          1       4    4s                0.040000       0.000000
                                                         0.097098       0.188374
                                                         0.283960      -0.341415
                                                         0.806764       0.091223
                                                         2.441624      -0.053941
                                                         6.739673      -0.401007
                                                        34.417212      -3.786931

                          1       5    5s                0.040000       0.099533
                                                         0.097098      -0.167672
                                                         0.283960      -0.126383
                                                         0.806764       0.030074
                                                         2.441624       0.000000
                                                         6.739673       0.000000
                                                        34.417212       0.000000

                          1       6    2px               0.040000       0.000000
                                                         0.097098       0.005087
                                                         0.283960       0.032186
                                                         0.806764       0.779023
                                                         2.441624       0.695625
                                                         6.739673       2.243109
                                                        34.417212       2.016536
                          1       6    2py               0.040000       0.000000
                                                         0.097098       0.005087
                                                         0.283960       0.032186
                                                         0.806764       0.779023
                                                         2.441624       0.695625
                                                         6.739673       2.243109
                                                        34.417212       2.016536
                          1       6    2pz               0.040000       0.000000
                                                         0.097098       0.005087
                                                         0.283960       0.032186
                                                         0.806764       0.779023
                                                         2.441624       0.695625
                                                         6.739673       2.243109
                                                        34.417212       2.016536

                          1       7    3px               0.040000       0.000000
                                                         0.097098       0.008084
                                                         0.283960       0.294367
                                                         0.806764      -0.188640
                                                         2.441624       0.912249
                                                         6.739673      -2.720242
                                                        34.417212       1.690366
                          1       7    3py               0.040000       0.000000
                                                         0.097098       0.008084
                                                         0.283960       0.294367
                                                         0.806764      -0.188640
                                                         2.441624       0.912249
                                                         6.739673      -2.720242
                                                        34.417212       1.690366
                          1       7    3pz               0.040000       0.000000
                                                         0.097098       0.008084
                                                         0.283960       0.294367
                                                         0.806764      -0.188640
                                                         2.441624       0.912249
                                                         6.739673      -2.720242
                                                        34.417212       1.690366

                          1       8    4px               0.040000       0.000000
                                                         0.097098       0.081068
                                                         0.283960      -0.017243
                                                         0.806764      -0.070055
                                                         2.441624      -0.855991
                                                         6.739673       1.761645
                                                        34.417212     -12.705833
                          1       8    4py               0.040000       0.000000
                                                         0.097098       0.081068
                                                         0.283960      -0.017243
                                                         0.806764      -0.070055
                                                         2.441624      -0.855991
                                                         6.739673       1.761645
                                                        34.417212     -12.705833
                          1       8    4pz               0.040000       0.000000
                                                         0.097098       0.081068
                                                         0.283960      -0.017243
                                                         0.806764      -0.070055
                                                         2.441624      -0.855991
                                                         6.739673       1.761645
                                                        34.417212     -12.705833

                          1       9    5px               0.040000       0.032085
                                                         0.097098      -0.027366
                                                         0.283960      -0.100343
                                                         0.806764      -0.020266
                                                         2.441624       0.000000
                                                         6.739673       0.000000
                                                        34.417212       0.000000
                          1       9    5py               0.040000       0.032085
                                                         0.097098      -0.027366
                                                         0.283960      -0.100343
                                                         0.806764      -0.020266
                                                         2.441624       0.000000
                                                         6.739673       0.000000
                                                        34.417212       0.000000
                          1       9    5pz               0.040000       0.032085
                                                         0.097098      -0.027366
                                                         0.283960      -0.100343
                                                         0.806764      -0.020266
                                                         2.441624       0.000000
                                                         6.739673       0.000000
                                                        34.417212       0.000000

                          1      10    3dx2              0.040000       0.000000
                                                         0.097098       0.001415
                                                         0.283960       0.015501
                                                         0.806764       0.546922
                                                         2.441624       3.763414
                                                         6.739673       4.248634
                                                        34.417212     174.894573
                          1      10    3dxy              0.040000       0.000000
                                                         0.097098       0.002451
                                                         0.283960       0.026849
                                                         0.806764       0.947296
                                                         2.441624       6.518424
                                                         6.739673       7.358850
                                                        34.417212     302.926287
                          1      10    3dxz              0.040000       0.000000
                                                         0.097098       0.002451
                                                         0.283960       0.026849
                                                         0.806764       0.947296
                                                         2.441624       6.518424
                                                         6.739673       7.358850
                                                        34.417212     302.926287
                          1      10    3dy2              0.040000       0.000000
                                                         0.097098       0.001415
                                                         0.283960       0.015501
                                                         0.806764       0.546922
                                                         2.441624       3.763414
                                                         6.739673       4.248634
                                                        34.417212     174.894573
                          1      10    3dyz              0.040000       0.000000
                                                         0.097098       0.002451
                                                         0.283960       0.026849
                                                         0.806764       0.947296
                                                         2.441624       6.518424
                                                         6.739673       7.358850
                                                        34.417212     302.926287
                          1      10    3dz2              0.040000       0.000000
                                                         0.097098       0.001415
                                                         0.283960       0.015501
                                                         0.806764       0.546922
                                                         2.441624       3.763414
                                                         6.739673       4.248634
                                                        34.417212     174.894573

                          1      11    4dx2              0.040000       0.000000
                                                         0.097098       0.001225
                                                         0.283960       0.139703
                                                         0.806764       0.323683
                                                         2.441624      -2.510108
                                                         6.739673      -4.401044
                                                        34.417212    -164.169372
                          1      11    4dxy              0.040000       0.000000
                                                         0.097098       0.002122
                                                         0.283960       0.241972
                                                         0.806764       0.560636
                                                         2.441624      -4.347634
                                                         6.739673      -7.622831
                                                        34.417212    -284.349694
                          1      11    4dxz              0.040000       0.000000
                                                         0.097098       0.002122
                                                         0.283960       0.241972
                                                         0.806764       0.560636
                                                         2.441624      -4.347634
                                                         6.739673      -7.622831
                                                        34.417212    -284.349694
                          1      11    4dy2              0.040000       0.000000
                                                         0.097098       0.001225
                                                         0.283960       0.139703
                                                         0.806764       0.323683
                                                         2.441624      -2.510108
                                                         6.739673      -4.401044
                                                        34.417212    -164.169372
                          1      11    4dyz              0.040000       0.000000
                                                         0.097098       0.002122
                                                         0.283960       0.241972
                                                         0.806764       0.560636
                                                         2.441624      -4.347634
                                                         6.739673      -7.622831
                                                        34.417212    -284.349694
                          1      11    4dz2              0.040000       0.000000
                                                         0.097098       0.001225
                                                         0.283960       0.139703
                                                         0.806764       0.323683
                                                         2.441624      -2.510108
                                                         6.739673      -4.401044
                                                        34.417212    -164.169372

                          1      12    5dx2              0.040000       0.006049
                                                         0.097098      -0.003128
                                                         0.283960       0.033814
                                                         0.806764       0.003338
                                                         2.441624       0.000000
                                                         6.739673       0.000000
                                                        34.417212       0.000000
                          1      12    5dxy              0.040000       0.010477
                                                         0.097098      -0.005418
                                                         0.283960       0.058567
                                                         0.806764       0.005781
                                                         2.441624       0.000000
                                                         6.739673       0.000000
                                                        34.417212       0.000000
                          1      12    5dxz              0.040000       0.010477
                                                         0.097098      -0.005418
                                                         0.283960       0.058567
                                                         0.806764       0.005781
                                                         2.441624       0.000000
                                                         6.739673       0.000000
                                                        34.417212       0.000000
                          1      12    5dy2              0.040000       0.006049
                                                         0.097098      -0.003128
                                                         0.283960       0.033814
                                                         0.806764       0.003338
                                                         2.441624       0.000000
                                                         6.739673       0.000000
                                                        34.417212       0.000000
                          1      12    5dyz              0.040000       0.010477
                                                         0.097098      -0.005418
                                                         0.283960       0.058567
                                                         0.806764       0.005781
                                                         2.441624       0.000000
                                                         6.739673       0.000000
                                                        34.417212       0.000000
                          1      12    5dz2              0.040000       0.006049
                                                         0.097098      -0.003128
                                                         0.283960       0.033814
                                                         0.806764       0.003338
                                                         2.441624       0.000000
                                                         6.739673       0.000000
                                                        34.417212       0.000000

                          1      13    4fx3              0.040000       0.000000
                                                         0.097098      -0.000799
                                                         0.283960       0.042127
                                                         0.806764       0.576468
                                                         2.441624       1.033755
                                                         6.739673      -2.026957
                                                        34.417212      49.427593
                          1      13    4fx2y             0.040000       0.000000
                                                         0.097098      -0.001786
                                                         0.283960       0.094199
                                                         0.806764       1.289022
                                                         2.441624       2.311546
                                                         6.739673      -4.532415
                                                        34.417212     110.523457
                          1      13    4fx2z             0.040000       0.000000
                                                         0.097098      -0.001786
                                                         0.283960       0.094199
                                                         0.806764       1.289022
                                                         2.441624       2.311546
                                                         6.739673      -4.532415
                                                        34.417212     110.523457
                          1      13    4fxy2             0.040000       0.000000
                                                         0.097098      -0.001786
                                                         0.283960       0.094199
                                                         0.806764       1.289022
                                                         2.441624       2.311546
                                                         6.739673      -4.532415
                                                        34.417212     110.523457
                          1      13    4fxyz             0.040000       0.000000
                                                         0.097098      -0.003093
                                                         0.283960       0.163158
                                                         0.806764       2.232651
                                                         2.441624       4.003716
                                                         6.739673      -7.850372
                                                        34.417212     191.432243
                          1      13    4fxz2             0.040000       0.000000
                                                         0.097098      -0.001786
                                                         0.283960       0.094199
                                                         0.806764       1.289022
                                                         2.441624       2.311546
                                                         6.739673      -4.532415
                                                        34.417212     110.523457
                          1      13    4fy3              0.040000       0.000000
                                                         0.097098      -0.000799
                                                         0.283960       0.042127
                                                         0.806764       0.576468
                                                         2.441624       1.033755
                                                         6.739673      -2.026957
                                                        34.417212      49.427593
                          1      13    4fy2z             0.040000       0.000000
                                                         0.097098      -0.001786
                                                         0.283960       0.094199
                                                         0.806764       1.289022
                                                         2.441624       2.311546
                                                         6.739673      -4.532415
                                                        34.417212     110.523457
                          1      13    4fyz2             0.040000       0.000000
                                                         0.097098      -0.001786
                                                         0.283960       0.094199
                                                         0.806764       1.289022
                                                         2.441624       2.311546
                                                         6.739673      -4.532415
                                                        34.417212     110.523457
                          1      13    4fz3              0.040000       0.000000
                                                         0.097098      -0.000799
                                                         0.283960       0.042127
                                                         0.806764       0.576468
                                                         2.441624       1.033755
                                                         6.739673      -2.026957
                                                        34.417212      49.427593

                          1      14    5fx3              0.040000       0.000092
                                                         0.097098       0.001511
                                                         0.283960      -0.094589
                                                         0.806764       0.000869
                                                         2.441624       0.000000
                                                         6.739673       0.000000
                                                        34.417212       0.000000
                          1      14    5fx2y             0.040000       0.000206
                                                         0.097098       0.003380
                                                         0.283960      -0.211507
                                                         0.806764       0.001943
                                                         2.441624       0.000000
                                                         6.739673       0.000000
                                                        34.417212       0.000000
                          1      14    5fx2z             0.040000       0.000206
                                                         0.097098       0.003380
                                                         0.283960      -0.211507
                                                         0.806764       0.001943
                                                         2.441624       0.000000
                                                         6.739673       0.000000
                                                        34.417212       0.000000
                          1      14    5fxy2             0.040000       0.000206
                                                         0.097098       0.003380
                                                         0.283960      -0.211507
                                                         0.806764       0.001943
                                                         2.441624       0.000000
                                                         6.739673       0.000000
                                                        34.417212       0.000000
                          1      14    5fxyz             0.040000       0.000357
                                                         0.097098       0.005854
                                                         0.283960      -0.366341
                                                         0.806764       0.003365
                                                         2.441624       0.000000
                                                         6.739673       0.000000
                                                        34.417212       0.000000
                          1      14    5fxz2             0.040000       0.000206
                                                         0.097098       0.003380
                                                         0.283960      -0.211507
                                                         0.806764       0.001943
                                                         2.441624       0.000000
                                                         6.739673       0.000000
                                                        34.417212       0.000000
                          1      14    5fy3              0.040000       0.000092
                                                         0.097098       0.001511
                                                         0.283960      -0.094589
                                                         0.806764       0.000869
                                                         2.441624       0.000000
                                                         6.739673       0.000000
                                                        34.417212       0.000000
                          1      14    5fy2z             0.040000       0.000206
                                                         0.097098       0.003380
                                                         0.283960      -0.211507
                                                         0.806764       0.001943
                                                         2.441624       0.000000
                                                         6.739673       0.000000
                                                        34.417212       0.000000
                          1      14    5fyz2             0.040000       0.000206
                                                         0.097098       0.003380
                                                         0.283960      -0.211507
                                                         0.806764       0.001943
                                                         2.441624       0.000000
                                                         6.739673       0.000000
                                                        34.417212       0.000000
                          1      14    5fz3              0.040000       0.000092
                                                         0.097098       0.001511
                                                         0.283960      -0.094589
                                                         0.806764       0.000869
                                                         2.441624       0.000000
                                                         6.739673       0.000000
                                                        34.417212       0.000000

                          1      15    5gx4              0.040000       0.000014
                                                         0.097098       0.001608
                                                         0.283960       0.004604
                                                         0.806764      -0.003474
                                                         2.441624       0.000000
                                                         6.739673       0.000000
                                                        34.417212       0.000000
                          1      15    5gx3y             0.040000       0.000036
                                                         0.097098       0.004255
                                                         0.283960       0.012180
                                                         0.806764      -0.009191
                                                         2.441624       0.000000
                                                         6.739673       0.000000
                                                        34.417212       0.000000
                          1      15    5gx3z             0.040000       0.000036
                                                         0.097098       0.004255
                                                         0.283960       0.012180
                                                         0.806764      -0.009191
                                                         2.441624       0.000000
                                                         6.739673       0.000000
                                                        34.417212       0.000000
                          1      15    5gx2y2            0.040000       0.000046
                                                         0.097098       0.005493
                                                         0.283960       0.015725
                                                         0.806764      -0.011865
                                                         2.441624       0.000000
                                                         6.739673       0.000000
                                                        34.417212       0.000000
                          1      15    5gx2yz            0.040000       0.000080
                                                         0.097098       0.009514
                                                         0.283960       0.027236
                                                         0.806764      -0.020551
                                                         2.441624       0.000000
                                                         6.739673       0.000000
                                                        34.417212       0.000000
                          1      15    5gx2z2            0.040000       0.000046
                                                         0.097098       0.005493
                                                         0.283960       0.015725
                                                         0.806764      -0.011865
                                                         2.441624       0.000000
                                                         6.739673       0.000000
                                                        34.417212       0.000000
                          1      15    5gxy3             0.040000       0.000036
                                                         0.097098       0.004255
                                                         0.283960       0.012180
                                                         0.806764      -0.009191
                                                         2.441624       0.000000
                                                         6.739673       0.000000
                                                        34.417212       0.000000
                          1      15    5gxy2z            0.040000       0.000080
                                                         0.097098       0.009514
                                                         0.283960       0.027236
                                                         0.806764      -0.020551
                                                         2.441624       0.000000
                                                         6.739673       0.000000
                                                        34.417212       0.000000
                          1      15    5gxyz2            0.040000       0.000080
                                                         0.097098       0.009514
                                                         0.283960       0.027236
                                                         0.806764      -0.020551
                                                         2.441624       0.000000
                                                         6.739673       0.000000
                                                        34.417212       0.000000
                          1      15    5gxz3             0.040000       0.000036
                                                         0.097098       0.004255
                                                         0.283960       0.012180
                                                         0.806764      -0.009191
                                                         2.441624       0.000000
                                                         6.739673       0.000000
                                                        34.417212       0.000000
                          1      15    5gy4              0.040000       0.000014
                                                         0.097098       0.001608
                                                         0.283960       0.004604
                                                         0.806764      -0.003474
                                                         2.441624       0.000000
                                                         6.739673       0.000000
                                                        34.417212       0.000000
                          1      15    5gy3z             0.040000       0.000036
                                                         0.097098       0.004255
                                                         0.283960       0.012180
                                                         0.806764      -0.009191
                                                         2.441624       0.000000
                                                         6.739673       0.000000
                                                        34.417212       0.000000
                          1      15    5gy2z2            0.040000       0.000046
                                                         0.097098       0.005493
                                                         0.283960       0.015725
                                                         0.806764      -0.011865
                                                         2.441624       0.000000
                                                         6.739673       0.000000
                                                        34.417212       0.000000
                          1      15    5gyz3             0.040000       0.000036
                                                         0.097098       0.004255
                                                         0.283960       0.012180
                                                         0.806764      -0.009191
                                                         2.441624       0.000000
                                                         6.739673       0.000000
                                                        34.417212       0.000000
                          1      15    5gz4              0.040000       0.000014
                                                         0.097098       0.001608
                                                         0.283960       0.004604
                                                         0.806764      -0.003474
                                                         2.441624       0.000000
                                                         6.739673       0.000000
                                                        34.417212       0.000000

                          2       1    1s            13575.369584       0.323227
                                                      2035.237517       2.062509
                                                       463.111112       2.210797
                                                       131.318553       4.954487
                                                        42.899593       1.730189
                                                        15.855102       4.257999

     RI Auxiliary Basis Set             RI_aug-TZVP-MOLOPT-ae_N_RI_094_s_p_d_f_g

       Number of orbital shell sets:                                          24
       Number of orbital shells:                                              24
       Number of primitive Cartesian functions:                               24
       Number of Cartesian basis functions:                                  121
       Number of spherical basis functions:                                   94
       Norm type:                                                              2

       Normalised Cartesian orbitals:

                        Set   Shell   Orbital            Exponent    Coefficient

                          1       1    1s                0.182375       0.198900

                          2       1   14dx2              0.216126       0.112758
                          2       1   14dxy              0.216126       0.195303
                          2       1   14dxz              0.216126       0.195303
                          2       1   14dy2              0.216126       0.112758
                          2       1   14dyz              0.216126       0.195303
                          2       1   14dz2              0.216126       0.112758

                          3       1    2s                0.278625       0.273322

                          4       1    8px               0.350543       0.384474
                          4       1    8py               0.350543       0.384474
                          4       1    8pz               0.350543       0.384474

                          5       1   15dx2              0.387364       0.313053
                          5       1   15dxy              0.387364       0.542224
                          5       1   15dxz              0.387364       0.542224
                          5       1   15dy2              0.387364       0.313053
                          5       1   15dyz              0.387364       0.542224
                          5       1   15dz2              0.387364       0.313053

                          6       1    9px               0.492520       0.588125
                          6       1    9py               0.492520       0.588125
                          6       1    9pz               0.492520       0.588125

                          7       1   20fx3              0.530875       0.354149
                          7       1   20fx2y             0.530875       0.791902
                          7       1   20fx2z             0.530875       0.791902
                          7       1   20fxy2             0.530875       0.791902
                          7       1   20fxyz             0.530875       1.371615
                          7       1   20fxz2             0.530875       0.791902
                          7       1   20fy3              0.530875       0.354149
                          7       1   20fy2z             0.530875       0.791902
                          7       1   20fyz2             0.530875       0.791902
                          7       1   20fz3              0.530875       0.354149

                          8       1   23gx4              0.547365       0.212176
                          8       1   23gx3y             0.547365       0.561366
                          8       1   23gx3z             0.547365       0.561366
                          8       1   23gx2y2            0.547365       0.724720
                          8       1   23gx2yz            0.547365       1.255253
                          8       1   23gx2z2            0.547365       0.724720
                          8       1   23gxy3             0.547365       0.561366
                          8       1   23gxy2z            0.547365       1.255253
                          8       1   23gxyz2            0.547365       1.255253
                          8       1   23gxz3             0.547365       0.561366
                          8       1   23gy4              0.547365       0.212176
                          8       1   23gy3z             0.547365       0.561366
                          8       1   23gy2z2            0.547365       0.724720
                          8       1   23gyz3             0.547365       0.561366
                          8       1   23gz4              0.547365       0.212176

                          9       1   16dx2              0.715114       0.915306
                          9       1   16dxy              0.715114       1.585357
                          9       1   16dxz              0.715114       1.585357
                          9       1   16dy2              0.715114       0.915306
                          9       1   16dyz              0.715114       1.585357
                          9       1   16dz2              0.715114       0.915306

                         10       1    3s                0.753344       0.576309

                         11       1   10px               1.063482       1.539405
                         11       1   10py               1.063482       1.539405
                         11       1   10pz               1.063482       1.539405

                         12       1   17dx2              1.313463       2.652409
                         12       1   17dxy              1.313463       4.594108
                         12       1   17dxz              1.313463       4.594108
                         12       1   17dy2              1.313463       2.652409
                         12       1   17dyz              1.313463       4.594108
                         12       1   17dz2              1.313463       2.652409

                         13       1   21fx3              1.320842       2.753398
                         13       1   21fx2y             1.320842       6.156786
                         13       1   21fx2z             1.320842       6.156786
                         13       1   21fxy2             1.320842       6.156786
                         13       1   21fxyz             1.320842      10.663866
                         13       1   21fxz2             1.320842       6.156786
                         13       1   21fy3              1.320842       2.753398
                         13       1   21fy2z             1.320842       6.156786
                         13       1   21fyz2             1.320842       6.156786
                         13       1   21fz3              1.320842       2.753398

                         14       1   24gx4              1.548328       3.703041
                         14       1   24gx3y             1.548328       9.797325
                         14       1   24gx3z             1.548328       9.797325
                         14       1   24gx2y2            1.548328      12.648292
                         14       1   24gx2yz            1.548328      21.907485
                         14       1   24gx2z2            1.548328      12.648292
                         14       1   24gxy3             1.548328       9.797325
                         14       1   24gxy2z            1.548328      21.907485
                         14       1   24gxyz2            1.548328      21.907485
                         14       1   24gxz3             1.548328       9.797325
                         14       1   24gy4              1.548328       3.703041
                         14       1   24gy3z             1.548328       9.797325
                         14       1   24gy2z2            1.548328      12.648292
                         14       1   24gyz3             1.548328       9.797325
                         14       1   24gz4              1.548328       3.703041

                         15       1    4s                2.247219       1.308110

                         16       1   18dx2              2.417521       7.714496
                         16       1   18dxy              2.417521      13.361899
                         16       1   18dxz              2.417521      13.361899
                         16       1   18dy2              2.417521       7.714496
                         16       1   18dyz              2.417521      13.361899
                         16       1   18dz2              2.417521       7.714496

                         17       1   11px               2.682426       4.893278
                         17       1   11py               2.682426       4.893278
                         17       1   11pz               2.682426       4.893278

                         18       1   22fx3              3.882270      31.145644
                         18       1   22fx2y             3.882270      69.643778
                         18       1   22fx2z             3.882270      69.643778
                         18       1   22fxy2             3.882270      69.643778
                         18       1   22fxyz             3.882270     120.626562
                         18       1   22fxz2             3.882270      69.643778
                         18       1   22fy3              3.882270      31.145644
                         18       1   22fy2z             3.882270      69.643778
                         18       1   22fyz2             3.882270      69.643778
                         18       1   22fz3              3.882270      31.145644

                         19       1   19dx2              4.573046      23.537977
                         19       1   19dxy              4.573046      40.768972
                         19       1   19dxz              4.573046      40.768972
                         19       1   19dy2              4.573046      23.537977
                         19       1   19dyz              4.573046      40.768972
                         19       1   19dz2              4.573046      23.537977

                         20       1   12px               6.990933      16.203506
                         20       1   12py               6.990933      16.203506
                         20       1   12pz               6.990933      16.203506

                         21       1    5s                7.163766       3.120801

                         22       1   13px              16.966694      49.083625
                         22       1   13py              16.966694      49.083625
                         22       1   13pz              16.966694      49.083625

                         23       1    6s               24.806664       7.922028

                         24       1    7s               79.332059      18.945088

       Atomic covalent radius [Angstrom]:                                  0.770

       Atomic van der Waals radius [Angstrom]:                             1.700

     The atoms of this atomic kind are PAW atoms (GAPW):
       Hard Gaussian function radius:                                      1.512
       Rho0 radius:                                                        1.512
       Maximum GTO radius used for PAW projector construction:            24.566

     GAPW Soft Basis Set                                 aug-TZVP-MOLOPT-ae_soft

       Number of orbital shell sets:                                           2
       Number of orbital shells:                                              16
       Number of primitive Cartesian functions:                                5
       Number of Cartesian basis functions:                                   71
       Number of spherical basis functions:                                   56
       Norm type:                                                              2

       Normalised Cartesian orbitals:

                        Set   Shell   Orbital            Exponent    Coefficient

                          1       1    1s                0.040000       0.000000
                                                         0.097098       0.019281
                                                         0.283960       0.027513
                                                         0.806764       0.003692
                                                         2.441624       0.446183

                          1       2    2s                0.040000       0.000000
                                                         0.097098       0.029117
                                                         0.283960       0.094997
                                                         0.806764       0.362633
                                                         2.441624      -0.104551

                          1       3    3s                0.040000       0.000000
                                                         0.097098       0.047046
                                                         0.283960       0.169545
                                                         0.806764      -0.252838
                                                         2.441624      -0.199197

                          1       4    4s                0.040000       0.000000
                                                         0.097098       0.188374
                                                         0.283960      -0.341415
                                                         0.806764       0.091223
                                                         2.441624      -0.053941

                          1       5    5s                0.040000       0.099533
                                                         0.097098      -0.167672
                                                         0.283960      -0.126383
                                                         0.806764       0.030074
                                                         2.441624       0.000000

                          1       6    2px               0.040000       0.000000
                                                         0.097098       0.005087
                                                         0.283960       0.032186
                                                         0.806764       0.779023
                                                         2.441624       0.695625
                          1       6    2py               0.040000       0.000000
                                                         0.097098       0.005087
                                                         0.283960       0.032186
                                                         0.806764       0.779023
                                                         2.441624       0.695625
                          1       6    2pz               0.040000       0.000000
                                                         0.097098       0.005087
                                                         0.283960       0.032186
                                                         0.806764       0.779023
                                                         2.441624       0.695625

                          1       7    3px               0.040000       0.000000
                                                         0.097098       0.008084
                                                         0.283960       0.294367
                                                         0.806764      -0.188640
                                                         2.441624       0.912249
                          1       7    3py               0.040000       0.000000
                                                         0.097098       0.008084
                                                         0.283960       0.294367
                                                         0.806764      -0.188640
                                                         2.441624       0.912249
                          1       7    3pz               0.040000       0.000000
                                                         0.097098       0.008084
                                                         0.283960       0.294367
                                                         0.806764      -0.188640
                                                         2.441624       0.912249

                          1       8    4px               0.040000       0.000000
                                                         0.097098       0.081068
                                                         0.283960      -0.017243
                                                         0.806764      -0.070055
                                                         2.441624      -0.855991
                          1       8    4py               0.040000       0.000000
                                                         0.097098       0.081068
                                                         0.283960      -0.017243
                                                         0.806764      -0.070055
                                                         2.441624      -0.855991
                          1       8    4pz               0.040000       0.000000
                                                         0.097098       0.081068
                                                         0.283960      -0.017243
                                                         0.806764      -0.070055
                                                         2.441624      -0.855991

                          1       9    5px               0.040000       0.032085
                                                         0.097098      -0.027366
                                                         0.283960      -0.100343
                                                         0.806764      -0.020266
                                                         2.441624       0.000000
                          1       9    5py               0.040000       0.032085
                                                         0.097098      -0.027366
                                                         0.283960      -0.100343
                                                         0.806764      -0.020266
                                                         2.441624       0.000000
                          1       9    5pz               0.040000       0.032085
                                                         0.097098      -0.027366
                                                         0.283960      -0.100343
                                                         0.806764      -0.020266
                                                         2.441624       0.000000

                          1      10    3dx2              0.040000       0.000000
                                                         0.097098       0.001415
                                                         0.283960       0.015501
                                                         0.806764       0.546922
                                                         2.441624       3.763414
                          1      10    3dxy              0.040000       0.000000
                                                         0.097098       0.002451
                                                         0.283960       0.026849
                                                         0.806764       0.947296
                                                         2.441624       6.518424
                          1      10    3dxz              0.040000       0.000000
                                                         0.097098       0.002451
                                                         0.283960       0.026849
                                                         0.806764       0.947296
                                                         2.441624       6.518424
                          1      10    3dy2              0.040000       0.000000
                                                         0.097098       0.001415
                                                         0.283960       0.015501
                                                         0.806764       0.546922
                                                         2.441624       3.763414
                          1      10    3dyz              0.040000       0.000000
                                                         0.097098       0.002451
                                                         0.283960       0.026849
                                                         0.806764       0.947296
                                                         2.441624       6.518424
                          1      10    3dz2              0.040000       0.000000
                                                         0.097098       0.001415
                                                         0.283960       0.015501
                                                         0.806764       0.546922
                                                         2.441624       3.763414

                          1      11    4dx2              0.040000       0.000000
                                                         0.097098       0.001225
                                                         0.283960       0.139703
                                                         0.806764       0.323683
                                                         2.441624      -2.510108
                          1      11    4dxy              0.040000       0.000000
                                                         0.097098       0.002122
                                                         0.283960       0.241972
                                                         0.806764       0.560636
                                                         2.441624      -4.347634
                          1      11    4dxz              0.040000       0.000000
                                                         0.097098       0.002122
                                                         0.283960       0.241972
                                                         0.806764       0.560636
                                                         2.441624      -4.347634
                          1      11    4dy2              0.040000       0.000000
                                                         0.097098       0.001225
                                                         0.283960       0.139703
                                                         0.806764       0.323683
                                                         2.441624      -2.510108
                          1      11    4dyz              0.040000       0.000000
                                                         0.097098       0.002122
                                                         0.283960       0.241972
                                                         0.806764       0.560636
                                                         2.441624      -4.347634
                          1      11    4dz2              0.040000       0.000000
                                                         0.097098       0.001225
                                                         0.283960       0.139703
[...]
 Enabling simulation at the fifth rung of DFT: Large scale RPA calculations with 
 excellent time to solution.
 https://doi.org/10.1016/j.cpc.2014.10.021

 J. Hutter, M. Iannuzzi, F. Schiffmann, J. VandeVondele.
 WIREs Comput Mol Sci. 4, 15-25 (2014).
 CP2K: atomistic simulations of condensed matter systems.
 https://doi.org/10.1002/wcms.1159

 U. Borstnik, J. VandeVondele, V. Weber, J. Hutter.
 Parallel Comput. 40, 47-58 (2014).
 Sparse matrix multiplication: The distributed block-compressed sparse row 
 library.
 https://doi.org/10.1016/j.parco.2014.03.012

 A. Marek, V. Blum, R. Johanni, V. Havu, B. Lang, T. Auckenthaler, A. Heinecke, 
 H. Bungartz, H. Lederer.
 J. Phys. Condens. Matter 26, 213201 (2014).
 The ELPA library: scalable parallel eigenvalue solutions for electronic 
 structure theory and computational science.
 https://doi.org/10.1088/0953-8984/26/21/213201

 M. Del Ben, J. Hutter, J. VandeVondele.
 J. Chem. Theory Comput. 9, 2654-2671 (2013).
 Electron Correlation in the Condensed Phase from a Resolution of Identity 
 Approach Based on the Gaussian and Plane Waves Scheme.
 https://doi.org/10.1021/ct4002202

 M. Del Ben, J. Hutter, J. VandeVondele.
 J. Chem. Theory Comput. 8, 4177-4188 (2012).
 Second-Order Moller-Plesset Perturbation Theory in the Condensed Phase: An 
 Efficient and Massively Parallel Gaussian and Plane Waves Approach.
 https://doi.org/10.1021/ct300531w

 M. Guidon, J. Hutter, J. VandeVondele.
 J. Chem. Theory Comput. 5, 3010-3021 (2009).
 Robust Periodic Hartree-Fock Exchange for Large-Scale Simulations Using 
 Gaussian Basis Sets.
 https://doi.org/10.1021/ct900494g

 M. Guidon, F. Schiffmann, J. Hutter, J. VandeVondele.
 J. Chem. Phys. 128, 214104 (2008).
 Ab initio molecular dynamics using hybrid density functionals.
 https://doi.org/10.1063/1.2931945

 L. Genovese, T. Deutsch, S. Goedecker.
 J. Chem. Phys. 127, 054704 (2007).
 Efficient and accurate three-dimensional Poisson solver for surface problems.
 https://doi.org/10.1063/1.2754685

 J. VandeVondele, J. Hutter.
 J. Chem. Phys. 127, 114105 (2007).
 Gaussian basis sets for accurate calculations on molecular systems in gas and 
 condensed phases.
 https://doi.org/10.1063/1.2770708

 L. Genovese, T. Deutsch, A. Neelov, S. Goedecker, G. Beylkin.
 J. Chem. Phys. 125, 074105 (2006).
 Efficient solution of Poisson's equation with free boundary conditions.
 https://doi.org/10.1063/1.2335442

 M. Frigo, S. G. Johnson.
 Proc. IEEE 93, 216-231 (2005).
 The design and implementation of FFTW3.
 https://doi.org/10.1109/JPROC.2004.840301

 M. Krack, M. Parrinello.
 Phys. Chem. Chem. Phys. 2, 2105-2112 (2000).
 All-electron ab-initio molecular dynamics.
 https://doi.org/10.1039/b001167n

 G. Lippert, J. Hutter, M. Parrinello.
 Theor. Chem. Acc. 103, 124-140 (1999).
 The Gaussian and augmented-plane-wave density functional method for ab initio 
 molecular dynamics simulations.
 https://doi.org/10.1007/s002140050523

 J. P. Perdew, K. Burke, M. Ernzerhof.
 Phys. Rev. Lett. 77, 3865-3868 (1996).
 Generalized gradient approximation made simple.
 https://doi.org/10.1103/PhysRevLett.77.3865


 -------------------------------------------------------------------------------
 -                                                                             -
 -                                T I M I N G                                  -
 -                                                                             -
 -------------------------------------------------------------------------------
 SUBROUTINE                       CALLS  ASD         SELF TIME        TOTAL TIME
                                MAXIMUM       AVERAGE  MAXIMUM  AVERAGE  MAXIMUM
 CP2K                                 1  1.0    0.016    0.033 2681.237 2681.250
 qs_energies                          1  2.0    0.000    0.000 2680.584 2680.704
 scf_env_do_scf                       1  3.0    0.000    0.000 2296.098 2296.117
 scf_env_do_scf_inner_loop           72  4.0    0.001    0.004 2296.098 2296.117
 qs_ks_build_kohn_sham_matrix        73  7.0    0.010    0.013 2259.254 2259.486
 qs_ks_update_qs_env                 72  5.0    0.000    0.001 2257.067 2257.295
 rebuild_ks_matrix                   72  6.0    0.000    0.000 2257.059 2257.286
 hfx_ks_matrix                       73  8.0    0.001    0.002 2158.829 2158.854
 integrate_four_center               73  9.0   11.680   13.928 2158.823 2158.848
 integrate_four_center_main          73 10.0    8.750   63.185 1751.007 2041.821
 integrate_four_center_bin        10600 11.0 1742.257 2023.576 1742.257 2023.576
 mp_sync                            803  9.5  299.148  672.460  299.148  672.460
 mp2_main                             1  3.0    0.000    0.000  382.391  382.511
 mp2_gpw_main                         1  4.0    0.000    0.001  379.879  379.906
 rpa_ri_compute_en                    1  5.0    0.001    0.002  349.660  349.662
 rpa_num_int                          1  6.0    0.001    0.001  348.694  348.731
 start_bse_calculation                1  7.0    0.001    0.006  214.177  214.179
 cp_fm_diag_elpa                     78  7.0    0.000    0.000  139.765  139.930
 cp_fm_diag_elpa_base                78  8.0  134.951  136.806  137.528  139.376
 parallel_gemm_fm                   364  8.5    0.001    0.001  128.241  130.920
 parallel_gemm_fm_cosma             364  9.5  128.240  130.919  128.240  130.919
 compute_GW_self_energy             100  7.0    0.001    0.013  126.119  128.784
 compute_GW_self_energy_deep        100  8.0   62.556   62.712  125.363  128.022
 create_hermitian_form_of_ABBA        1  8.0    0.002    0.002  113.762  113.847
 calc_screening_functions             1 10.0   94.390   96.057   95.678   97.384
 diagonalize_C                        1  8.0    0.004    0.006   89.135   89.216
 cp_fm_power                          2  7.5    0.358    0.391   81.005   81.156
 fft_wrap_pw1pw2                   1524  9.9    0.030    0.037   43.110   46.985
 fft_wrap_pw1pw2_250               1086 11.1    0.841    1.036   40.882   46.102
 fft3d_ps                          1524 11.9    5.402    7.571   39.778   43.371
 mp_alltoall_z22v                  1524 13.9   32.697   35.928   32.697   35.928
 mp2_ri_gpw_compute_in                1  5.0    0.019    0.025   30.189   30.192
 mp2_ri_gpw_compute_in_loop           1  6.0    0.000    0.000   30.125   30.131
 contract_B_L                         4  7.0    0.067    0.072   23.151   28.395
 qs_rho_update_rho_low               73  5.0    0.001    0.001   27.307   27.321
 mp_sum_d                         14318  6.9   16.790   23.828   16.790   23.828
 prepare_gapw_den                    73  8.0    0.002    0.002   23.209   23.728
 calculate_rho_elec                  73  6.0    0.096    0.136   22.289   22.293
 pw_poisson_solve                    73  8.0    0.244    0.335   21.250   21.276
 mp2_eri_3c_integrate                 1  7.0    0.011    0.016    6.131   20.943
 integrate_set_3c                  2435  8.0    5.630   19.520    6.120   20.931
 x_to_yz                            651 12.9    0.640    1.151   18.679   20.801
 qs_vxc_create                       73  8.0    0.001    0.001   20.659   20.659
 xc_vxc_pw_create                    72  9.0    0.150    0.209   20.658   20.658
 mp_cart_create                     625  9.9   15.025   20.262   15.026   20.263
 dbt_pgrid_create_expert             84 10.8    0.000    0.000   15.001   20.238
 xc_pw_derive                       432 11.0    0.003    0.003   15.952   16.371
 yz_to_x                            581 13.2    0.506    0.602   15.122   16.360
 calculate_rho_atom                 365  9.0    1.944   15.925    1.944   15.925
 mp_sum_dv                        35719  9.8   14.437   15.275   14.437   15.275
 density_rs2pw                       73  7.0    0.003    0.004   12.930   14.075
 sum_up_and_integrate                73  8.0    0.001    0.002   11.452   12.195
 integrate_v_rspace                  73  9.0    0.002    0.002   11.376   12.127
 calculate_vxc_atom                  73  8.0    0.051    0.377   11.998   11.999
 gaVxcgb_GC                         216  9.0    0.341   11.493    0.341   11.493
 ps_wavelet_solve                    73  9.0    4.260    6.027   10.254   10.903
 mp_waitany                       24344 11.5    8.917   10.870    8.917   10.870
 transfer_pw2rs                     366 10.6    0.006    0.009    9.375   10.795
 xc_rho_set_and_dset_create          72 10.0    0.182    0.238    9.605   10.736
 xc_pw_divergence                    72 10.0    0.001    0.002   10.129   10.409
 potential_pw2rs                     73 10.0    0.008    0.010   10.301   10.341
 grid_collocate_task_list            73  7.0    8.584    9.923    8.584    9.923
 cp_fm_syrk                           3  7.0    9.584    9.601    9.584    9.601
 transfer_rs2pw                     366  8.4    0.008    0.016    7.868    9.247
 dbt_total                            8  8.0    0.000    0.000    7.989    7.989
 transfer_pw2rs_250                 147 11.0    1.610    1.918    6.294    7.835
 dbt_contract                         4  9.0    0.000    0.000    7.660    7.715
 create_A                             1  8.0    0.011    0.021    7.098    7.156
 mp_sum_dm                         4238  7.7    6.315    6.988    6.315    6.988
 gspace_mixing                       71  5.0    0.093    0.132    6.749    6.759
 put_rho0_on_grid                    73  9.0    0.107    0.172    6.219    6.737
 integrate_vhg0_rspace               73  8.0    0.499    0.561    5.597    6.688
 mp_alltoall_d54                     73 10.0    3.110    6.612    3.110    6.612
 transfer_rs2pw_250                 147 10.0    1.545    1.735    4.894    6.326
 fm_general_add_bse                   5 10.2    0.000    0.000    6.108    6.230
 rpa_num_int_RPA_matrix_operati     100  7.0    0.001    0.003    5.599    5.603
 mp_waitall_1                     70854 12.0    4.178    5.598    4.178    5.598
 qs_scf_new_mos                      72  5.0    0.001    0.001    5.128    5.253
 calc_mat_Q                         100  8.0    0.000    0.000    5.123    5.153
 contract_S_to_Q                    100  9.0    0.001    0.001    5.098    5.128
 calculate_rho_atom_coeff            73  6.0    0.319    0.480    5.017    5.031
 mp_sum_l                          1043  6.4    1.777    4.906    1.777    4.906
 integrate_four_center_load          73 10.0    0.000    0.000    1.709    4.838
 hfx_load_balance                     1 11.0    0.000    0.000    1.708    4.837
 hfx_load_balance_range               1 12.0    0.000    0.000    1.695    4.825
 fm_general_add_bse_5_comm_buff       5 11.2    0.000    0.000    4.707    4.799
 communicate_buffer                   5 12.2    0.001    0.001    4.707    4.799
 mp_isend_dv                      28422 12.0    3.462    4.798    3.462    4.798
 mp_alltoall_d11v                  1432  9.5    3.292    4.780    3.292    4.780
 eigensolver_symm                    73  6.0    0.004    0.006    4.664    4.674
 create_B                             1  8.0    0.000    0.001    3.829    4.229
 fft_wrap_pw1pw2_90                 146 10.5    0.028    0.055    1.784    4.228
 dbt_tas_multiply                     8 11.5    0.000    0.000    4.104    4.111
 dbt_tas_total                        8 12.5    0.001    0.003    4.082    4.082
 mp_alltoall_d45                     74 10.0    3.380    4.028    3.380    4.028
 cp_fm_uplo_to_full                 182  8.3    3.881    3.985    3.881    3.985
 dbt_copy                            12 10.1    0.000    0.000    3.752    3.844
 cp_fm_redistribute_end              78  8.0    1.933    3.793    1.949    3.800
 dbt_reshape                          8 11.6    0.119    0.133    3.501    3.589
 dbt_communicate_buffer               8 12.6    0.002    0.002    3.335    3.423
 cp2k_distribution_to_z_slices       73  9.0    0.286    0.343    2.489    3.376
 dbt_tas_dbm                          8 13.5    0.000    0.000    3.294    3.294
 dbm_multiply                         8 15.5    2.730    3.201    2.730    3.201
 dbt_tas_mm_1N                        6 14.5    0.000    0.000    2.719    3.189
 broyden_mixing                      71  6.0    2.912    2.949    3.025    3.045
 Vh_1c_gg_integrals                  73  8.0    0.039    0.983    1.382    2.665
 calc_pair_dist_radii                 1 10.0    1.423    1.507    2.307    2.411
 mp_waitall_2                        48 15.8    1.923    2.339    1.923    2.339
 powell_optimize                1387573 11.0    2.172    2.327    2.172    2.327
 compute_vec_Sigma_x_minus_vxc_       1  4.0    0.000    0.000    2.203    2.205
 mp_max_i                           655  2.8    0.739    2.070    0.739    2.070
 transfer_pw2rs_90                   73 12.0    0.317    0.405    1.767    2.063
 transfer_rs2pw_90                   73  9.0    0.347    0.431    1.576    1.942
 mp_isend_im2                      1358 13.3    1.547    1.859    1.547    1.859
 grid_integrate_task_list            73 10.0    0.190    1.767    0.190    1.767
 rs_gather_matrices                  73 10.0    0.003    0.012    0.882    1.747
 xc_functional_eval                 504 10.8    0.001    0.002    0.850    1.694
 pbe_lda_eval                       504 11.8    0.849    1.692    0.849    1.692
 pw_integral_ab_c1d_c1d_gs           73  9.0    0.200    0.236    0.765    1.692
 dbt_remap                            8 10.0    0.001    0.001    1.574    1.596
 postprocess_bse                      1  9.0    0.000    0.000    1.413    1.562
 rs_grid_zero                       367 11.2    1.235    1.548    1.235    1.548
 qs_energies_init_hamiltonians        1  3.0    0.000    0.000    1.477    1.477
 build_core_hamiltonian_matrix        1  4.0    0.000    0.000    1.471    1.472
 overlap_condnum                      1  5.0    0.000    0.000    1.447    1.471
 abc_contract                      2435  9.0    0.490    1.434    0.490    1.434
 update_ks_atom                      73  8.0    0.190    0.454    1.157    1.395
 arnoldi_conjugate_gradient           5  6.0    0.026    0.032    1.371    1.371
 get_oscillator_strengths             1 10.0    0.001    0.001    1.311    1.311
 pw_derive                          651 11.3    1.088    1.198    1.088    1.198
 transfer_pw2rs_30                   73 12.0    0.325    0.375    1.050    1.191
 calculate_rho0_atom                365  9.0    1.088    1.180    1.088    1.180
 transfer_rs2pw_30                   73  9.0    0.403    0.481    1.076    1.168
 pw_copy                           1090 10.6    1.009    1.162    1.009    1.162
 integrate_four_center_getP          73 10.0    0.048    0.066    0.928    1.036
 mp_bcast_dm                       2774  9.0    0.968    0.996    0.968    0.996
 pw_gather_p                        727 11.8    0.778    0.983    0.778    0.983
 create_integ_mat                     4  6.0    0.004    0.010    0.935    0.971
 mp_sendrecv_dv                   27886 10.0    0.868    0.956    0.868    0.956
 array2fm                             4  7.0    0.000    0.000    0.877    0.949
 pw_scatter_p                       797 12.1    0.861    0.907    0.861    0.907
 dbcsr_multiply_generic             141  8.1    0.005    0.020    0.795    0.875
 dbcsr_sym_matrix_vector_mult      8565  7.0    0.062    0.067    0.795    0.866
 pw_poisson_rebuild                  73  9.0    0.000    0.000    0.745    0.767
 ps_wavelet_create                    1 10.0    0.000    0.000    0.745    0.767
 RS_z_slice_distribution              1 11.0    0.193    0.218    0.745    0.767
 cp_fm_cholesky_invert              101  8.0    0.713    0.738    0.713    0.738
 pw_poisson_set                      74  8.9    0.001    0.002    0.664    0.690
 pw_copy_to_array                   727 11.8    0.506    0.684    0.506    0.684
 cp_fm_to_fm_submat_general         112 10.1    0.453    0.630    0.453    0.630
 dbt_tas_replicate                    8 13.5    0.068    0.091    0.581    0.620
 copy_dbcsr_to_fm                   115  6.7    0.002    0.003    0.482    0.608
 integrate_four_center_dist_KS       73 10.0    0.029    0.035    0.569    0.570
 multiply_cannon                    141  9.1    0.010    0.012    0.507    0.567
 multiply_cannon_loop               141 10.1    0.006    0.006    0.483    0.544
 init_scf_run                         1  3.0    0.000    0.000    0.525    0.526
 dbt_tas_communicate_buffer          16 15.9    0.003    0.003    0.474    0.503
 dbt_tas_replicate_communicate_       6 14.5    0.000    0.000    0.463    0.491
 scf_env_initial_rho_setup            1  4.0    0.000    0.000    0.478    0.479
 cp_fm_cholesky_decompose           102  9.0    0.450    0.475    0.450    0.475
 fm_general_add_bse_1_setup           5 11.2    0.442    0.469    0.442    0.469
 multiply_cannon_multrec           1912 11.1    0.405    0.462    0.407    0.464
 cp_fm_redistribute_start            78  8.0    0.116    0.126    0.288    0.458
 mp_sum_iv                          339  9.6    0.125    0.457    0.125    0.457
 mp_isend_dm3                      3224 11.5    0.351    0.448    0.351    0.448
 pw_axpy                            725  9.3    0.369    0.447    0.369    0.447
 mp_alltoall_i22                    380  9.2    0.310    0.441    0.310    0.441
 dbcsr_rep_row_to_rep_col_vec      8565  8.0    0.024    0.031    0.188    0.436
 compute_Erpa_by_freq_int           100  8.0    0.001    0.002    0.429    0.431
 dbcsr_desymmetrize_deep            117  7.6    0.015    0.018    0.303    0.421
 array2fm_fill                        4  8.0    0.075    0.114    0.262    0.410
 pw_copy_from_array                 797 12.1    0.284    0.385    0.284    0.385
 transfer_rs2pw_10                   73  9.0    0.120    0.153    0.315    0.375
 array2fm_info                        4  8.0    0.288    0.361    0.294    0.363
 fft_wrap_pw1pw2_30                 146 10.5    0.004    0.005    0.279    0.359
 cp_fm_create                       369  7.8    0.306    0.354    0.306    0.354
 mp_alltoall_z11v                   292 13.5    0.277    0.339    0.277    0.339
 dbcsr_col_vec_to_rep_row          8565  8.0    0.029    0.036    0.247    0.332
 mp_wait                            153  9.0    0.187    0.331    0.187    0.331
 ao_to_mo_and_store_B_mult_gw_1       8  7.0    0.000    0.000    0.282    0.317
 fm_general_add_bse_4_buf_from_       1 10.0    0.259    0.311    0.259    0.311
 ao_to_mo_and_store_B_mult_bse_       8  7.0    0.000    0.000    0.254    0.305
 dbt_tas_estimate_result_nze          4 12.0    0.013    0.015    0.295    0.295
 fm_general_add_bse_4_buf_from_       1 10.0    0.261    0.291    0.261    0.291
 transfer_pw2rs_10                   73 12.0    0.084    0.099    0.258    0.280
 calculate_dm_sparse                 72  6.0    0.000    0.001    0.253    0.279
 dbcsr_add_d                      12905  7.0    0.006    0.007    0.045    0.278
 cp_dbcsr_plus_fm_fm_t               72  7.0    0.001    0.001    0.251    0.277
 pw_zero                            434 10.3    0.247    0.276    0.247    0.276
 dbcsr_add_anytype                12905  8.0    0.007    0.034    0.040    0.272
 qs_init_subsys                       1  2.0    0.003    0.003    0.271    0.271
 -------------------------------------------------------------------------------

 The number of warnings for this run is : 1
 
 -------------------------------------------------------------------------------
  **** **** ******  **  PROGRAM ENDED AT                 2025-03-15 09:49:51.965
 ***** ** ***  *** **   PROGRAM RAN ON                     n2cn0449.ab2021.local
 **    ****   ******    PROGRAM RAN BY                                  metdyn02
 ***** **    ** ** **   PROGRAM PROCESS ID                               3506697
  **** **  *******  **  PROGRAM STOPPED IN /scratch/hpc-prf-metdyn/metdyn02_Remi
                                           /10_MOL/05_MOL/aUKBqsEOTmq69kFe5R_nOg
                                           /5k_set_final_qzvp/JAWLEY/TZVP/GW+BSE
                                           /RILIM
