 DBCSR| CPU Multiplication driver                                           XSMM (U)
 DBCSR| Multrec recursion limit                                              512 (U)
 DBCSR| Multiplication stack size                                           1000 (D)
 DBCSR| Maximum elements for images                                    UNLIMITED (U)
 DBCSR| Multiplicative factor virtual images                                   1 (U)
 DBCSR| Use multiplication densification                                       T (D)
 DBCSR| Multiplication size stacks                                             3 (U)
 DBCSR| Use memory pool for CPU allocation                                     F (U)
 DBCSR| Number of 3D layers                                               SINGLE (U)
 DBCSR| Use MPI memory allocation                                              F (U)
 DBCSR| Use RMA algorithm                                                      F (U)
 DBCSR| Use Communication thread                                               T (U)
 DBCSR| Communication thread load                                             75 (D)
 DBCSR| MPI: My process id                                                     0
 DBCSR| MPI: Number of processes                                              16
 DBCSR| OMP: Current number of threads                                         4
 DBCSR| OMP: Max number of threads                                             4
 DBCSR| Split modifier for TAS multiplication algorithm                  1.0E+00 (U)


  **** **** ******  **  PROGRAM STARTED AT               2025-07-01 16:50:17.727
 ***** ** ***  *** **   PROGRAM STARTED ON                              n2cn1178
 **    ****   ******    PROGRAM STARTED BY                              metdyn02
 ***** **    ** ** **   PROGRAM PROCESS ID                               1389641
  **** **  *******  **  PROGRAM STARTED IN /scratch/hpc-prf-metdyn/metdyn02_Remi
                                           /10_MOL/05_MOL/W4-11+ALK/c2h3f/mini-S
                                           ZV/TDDFT/RILIM

 CP2K| version string:                 CP2K version 2025.1 (Development Version)
 CP2K| source code revision number:                                  git:400017f
 CP2K| cp2kflags: omp libint fftw3 libxc libgrpp elpa parallel scalapack mpi_f08
 CP2K|             cosma xsmm plumed2 spglib libvori libbqb libvdwxc hdf5
 CP2K| is freely available from                            https://www.cp2k.org/
 CP2K| Program compiled at                         Thu Jun 26 12:02:16 CEST 2025
 CP2K| Program compiled on                                              n2login1
 CP2K| Program compiled for                                                local
 CP2K| Data directory path    /opt/software/pc2/EB-SW/software/CP2K/2024.1-foss-
 CP2K| Input file name                                                    GW.inp

 GLOBAL| Force Environment number                                              1
 GLOBAL| Basis set file name            /scratch/hpc-prf-metdyn/metdyn02_Remi/BA
 GLOBAL| Potential file name            /pc2/groups/hpc-prf-metdyn/metdyn02_Remi
 GLOBAL| MM Potential file name                                     MM_POTENTIAL
 GLOBAL| Coordinate file name                                      __STD_INPUT__
 GLOBAL| Method name                                                        CP2K
 GLOBAL| Project name                                                       MoS2
 GLOBAL| Run type                                                         ENERGY
 GLOBAL| FFT library                                                       FFTW3
 GLOBAL| Diagonalization library                                            ELPA
 GLOBAL| Cholesky decomposition library                                ScaLAPACK
 GLOBAL| DGEMM library                                                      BLAS
 GLOBAL| Minimum number of eigenvectors for ELPA usage                        16
 GLOBAL| Orthonormality check for eigenvectors                          DISABLED
 GLOBAL| Matrix multiplication library                                     COSMA
 GLOBAL| All-to-all communication in single precision                          F
 GLOBAL| FFTs using library dependent lengths                                  F
 GLOBAL| Grid backend                                                       AUTO
 GLOBAL| Global print level                                               MEDIUM
 GLOBAL| MPI I/O enabled                                                       T
 GLOBAL| Total number of message passing processes                            16
 GLOBAL| Number of threads for this process                                    4
 GLOBAL| This output is from process                                           0
 GLOBAL| OpenMP stack size per thread (OMP_STACKSIZE)                    default
 GLOBAL| CPU model name                          AMD EPYC 7763 64-Core Processor
 GLOBAL| CPUID                                                              1002

 MEMORY| system memory details [Kb]
 MEMORY|                        rank 0           min           max       average
 MEMORY| MemTotal            263897596     263897596     263897620     263897608
 MEMORY| MemFree             247048180     247048180     250268088     248658146
 MEMORY| Buffers                119532         28728        119532         74130
 MEMORY| Cached               10035852       7294568      10035852       8665210
 MEMORY| Slab                  2076372       1647876       2076372       1862124
 MEMORY| SReclaimable           716384        311932        716384        514158
 MEMORY| MemLikelyFree       257919948     257903316     257919976     257911644


 *** Fundamental physical constants (SI units) ***

 *** Literature: B. J. Mohr and B. N. Taylor,
 ***             CODATA recommended values of the fundamental physical
 ***             constants: 2006, Web Version 5.1
 ***             http://physics.nist.gov/constants

 Speed of light in vacuum [m/s]                             2.99792458000000E+08
 Magnetic constant or permeability of vacuum [N/A**2]       1.25663706143592E-06
 Electric constant or permittivity of vacuum [F/m]          8.85418781762039E-12
 Planck constant (h) [J*s]                                  6.62606896000000E-34
 Planck constant (h-bar) [J*s]                              1.05457162825177E-34
 Elementary charge [C]                                      1.60217648700000E-19
 Electron mass [kg]                                         9.10938215000000E-31
 Electron g factor [ ]                                     -2.00231930436220E+00
 Proton mass [kg]                                           1.67262163700000E-27
 Fine-structure constant                                    7.29735253760000E-03
 Rydberg constant [1/m]                                     1.09737315685270E+07
 Avogadro constant [1/mol]                                  6.02214179000000E+23
 Boltzmann constant [J/K]                                   1.38065040000000E-23
 Atomic mass unit [kg]                                      1.66053878200000E-27
 Bohr radius [m]                                            5.29177208590000E-11

 *** Conversion factors ***

 [u] -> [a.u.]                                              1.82288848426455E+03
 [Angstrom] -> [Bohr] = [a.u.]                              1.88972613288564E+00
 [a.u.] = [Bohr] -> [Angstrom]                              5.29177208590000E-01
 [a.u.] -> [s]                                              2.41888432650478E-17
 [a.u.] -> [fs]                                             2.41888432650478E-02
 [a.u.] -> [J]                                              4.35974393937059E-18
 [a.u.] -> [N]                                              8.23872205491840E-08
 [a.u.] -> [K]                                              3.15774647902944E+05
 [a.u.] -> [kJ/mol]                                         2.62549961709828E+03
 [a.u.] -> [kcal/mol]                                       6.27509468713739E+02
 [a.u.] -> [Pa]                                             2.94210107994716E+13
 [a.u.] -> [bar]                                            2.94210107994716E+08
 [a.u.] -> [atm]                                            2.90362800883016E+08
 [a.u.] -> [eV]                                             2.72113838565563E+01
 [a.u.] -> [Hz]                                             6.57968392072181E+15
 [a.u.] -> [1/cm] (wave numbers)                            2.19474631370540E+05
 [a.u./Bohr**2] -> [1/cm]                                   5.14048714338585E+03
 

 CELL_TOP| Volume [angstrom^3]:                                     27000.000000
 CELL_TOP| Vector a [angstrom    30.000     0.000     0.000   |a| =    30.000000
 CELL_TOP| Vector b [angstrom     0.000    30.000     0.000   |b| =    30.000000
 CELL_TOP| Vector c [angstrom     0.000     0.000    30.000   |c| =    30.000000
 CELL_TOP| Angle (b,c), alpha [degree]:                                90.000000
 CELL_TOP| Angle (a,c), beta  [degree]:                                90.000000
 CELL_TOP| Angle (a,b), gamma [degree]:                                90.000000
 CELL_TOP| Numerically orthorhombic:                                         YES
 CELL_TOP| Periodicity                                                      NONE

 GENERATE|  Preliminary Number of Bonds generated:                             0
 GENERATE|  Achieved consistency in connectivity generation.

 CELL| Volume [angstrom^3]:                                         27000.000000
 CELL| Vector a [angstrom]:      30.000     0.000     0.000   |a| =    30.000000
 CELL| Vector b [angstrom]:       0.000    30.000     0.000   |b| =    30.000000
 CELL| Vector c [angstrom]:       0.000     0.000    30.000   |c| =    30.000000
 CELL| Angle (b,c), alpha [degree]:                                    90.000000
 CELL| Angle (a,c), beta  [degree]:                                    90.000000
 CELL| Angle (a,b), gamma [degree]:                                    90.000000
 CELL| Numerically orthorhombic:                                             YES
 CELL| Periodicity                                                          NONE

 CELL_REF| Volume [angstrom^3]:                                     27000.000000
 CELL_REF| Vector a [angstrom    30.000     0.000     0.000   |a| =    30.000000
 CELL_REF| Vector b [angstrom     0.000    30.000     0.000   |b| =    30.000000
 CELL_REF| Vector c [angstrom     0.000     0.000    30.000   |c| =    30.000000
 CELL_REF| Angle (b,c), alpha [degree]:                                90.000000
 CELL_REF| Angle (a,c), beta  [degree]:                                90.000000
 CELL_REF| Angle (a,b), gamma [degree]:                                90.000000
 CELL_REF| Numerically orthorhombic:                                         YES
 CELL_REF| Periodicity                                                      NONE

 *******************************************************************************
 *******************************************************************************
 **                                                                           **
 **     #####                         ##              ##                      **
 **    ##   ##            ##          ##              ##                      **
 **   ##     ##                       ##            ######                    **
 **   ##     ##  ##   ##  ##   #####  ##  ##   ####   ##    #####    #####    **
 **   ##     ##  ##   ##  ##  ##      ## ##   ##      ##   ##   ##  ##   ##   **
 **   ##  ## ##  ##   ##  ##  ##      ####     ###    ##   ######   ######    **
 **    ##  ###   ##   ##  ##  ##      ## ##      ##   ##   ##       ##        **
 **     #######   #####   ##   #####  ##  ##  ####    ##    #####   ##        **
 **           ##                                                    ##        **
 **                                                                           **
 **                                                ... make the atoms dance   **
 **                                                                           **
 **            Copyright (C) by CP2K developers group (2000-2025)             **
 **                      J. Chem. Phys. 152, 194103 (2020)                    **
 **                                                                           **
 *******************************************************************************

 DFT| Spin restricted Kohn-Sham (RKS) calculation                            RKS
 DFT| Multiplicity                                                             1
 DFT| Number of spin states                                                    1
 DFT| Charge                                                                   0
 DFT| Self-interaction correction (SIC)                                       NO
 DFT| Cutoffs: density                                              1.000000E-10
 DFT|          gradient                                             1.000000E-10
 DFT|          tau                                                  1.000000E-10
 DFT|          cutoff_smoothing_range                               0.000000E+00
 DFT| XC density smoothing                                                  NONE
 DFT| XC derivatives                                                          PW

 FUNCTIONAL| PBE:
 FUNCTIONAL| J.P.Perdew, K.Burke, M.Ernzerhof, Phys. Rev. Letter, vol. 77, n 18,
 FUNCTIONAL|  pp. 3865-3868, (1996)sx=0.750sc=1.000{spin unpolarized}           


 QS| Method:                                                                GAPW
 QS| Density plane wave grid type                        NON-SPHERICAL FULLSPACE
 QS| Number of grid levels:                                                    4
 QS| Density cutoff [a.u.]:                                                250.0
 QS| Multi grid cutoff [a.u.]: 1) grid level                               250.0
 QS|                           2) grid level                                83.3
 QS|                           3) grid level                                27.8
 QS|                           4) grid level                                 9.3
 QS| Grid level progression factor:                                          3.0
 QS| Relative density cutoff [a.u.]:                                        50.0
 QS| Interaction thresholds: eps_pgf_orb:                                1.0E-12
 QS|                         eps_filter_matrix:                          0.0E+00
 QS|                         eps_core_charge:                            1.0E-14
 QS|                         eps_rho_gspace:                             1.0E-12
 QS|                         eps_rho_rspace:                             1.0E-12
 QS|                         eps_gvg_rspace:                             1.0E-06
 QS|                         eps_ppl:                                    1.0E-02
 QS|                         eps_ppnl:                                   1.0E-08
 QS| GAPW|      One center basis from orbital basis primitives
 QS| GAPW|                   eps_fit:                                    1.0E-04
 QS| GAPW|                   eps_iso:                                    1.0E-12
 QS| GAPW|                   eps_svd:                                    1.0E-08
 QS| GAPW|                   eps_cpc:                                    1.0E-12
 QS| GAPW|   atom-r-grid: quadrature:                                     GC_LOG
 QS| GAPW|      atom-s-grid:  max l :                                          2
 QS| GAPW|      max_l_rho0 :                                                   2


 ATOMIC KIND INFORMATION

  1. Atomic kind: C                                     Number of atoms:       2

     Orbital Basis Set                                    aug-SZV-MOLOPT-ae-mini

       Number of orbital shell sets:                                           2
       Number of orbital shells:                                               5
       Number of primitive Cartesian functions:                                7
       Number of Cartesian basis functions:                                    9
       Number of spherical basis functions:                                    9
       Norm type:                                                              2

       Normalised Cartesian orbitals:

                        Set   Shell   Orbital            Exponent    Coefficient

                          1       1    2s                0.114558       0.000000
                                                         0.222289       0.161536
                                                         0.683483       0.214036
                                                         2.941249      -0.160017

                          1       2    3s                0.114558       0.000272
                                                         0.222289       0.256636
                                                         0.683483      -0.079244
                                                         2.941249       0.000032

                          1       3    3px               0.114558       0.000000
                                                         0.222289       0.085276
                                                         0.683483       0.538304
                                                         2.941249       0.856044
                          1       3    3py               0.114558       0.000000
                                                         0.222289       0.085276
                                                         0.683483       0.538304
                                                         2.941249       0.856044
                          1       3    3pz               0.114558       0.000000
                                                         0.222289       0.085276
                                                         0.683483       0.538304
                                                         2.941249       0.856044

                          1       4    4px               0.114558      -0.035043
                                                         0.222289      -0.159067
                                                         0.683483       0.106927
                                                         2.941249      -0.036832
                          1       4    4py               0.114558      -0.035043
                                                         0.222289      -0.159067
                                                         0.683483       0.106927
                                                         2.941249      -0.036832
                          1       4    4pz               0.114558      -0.035043
                                                         0.222289      -0.159067
                                                         0.683483       0.106927
                                                         2.941249      -0.036832

                          2       1    1s               71.616837       2.707801
                                                        13.045096       2.618883
                                                         3.530512       0.816191

     RI Auxiliary Basis Set             RI_aug-SZV-MOLOPT-ae-mini_N_RI_055_s_p_d

       Number of orbital shell sets:                                          19
       Number of orbital shells:                                              19
       Number of primitive Cartesian functions:                               19
       Number of Cartesian basis functions:                                   61
       Number of spherical basis functions:                                   55
       Norm type:                                                              2

       Normalised Cartesian orbitals:

                        Set   Shell   Orbital            Exponent    Coefficient

                          1       1    1s                0.286395       0.279019

                          2       1    8px               0.286395       0.298639
                          2       1    8py               0.286395       0.298639
                          2       1    8pz               0.286395       0.298639

                          3       1   14dx2              0.286395       0.184544
                          3       1   14dxy              0.286395       0.319639
                          3       1   14dxz              0.286395       0.319639
                          3       1   14dy2              0.286395       0.184544
                          3       1   14dyz              0.286395       0.319639
                          3       1   14dz2              0.286395       0.184544

                          4       1    2s                0.459764       0.397934

                          5       1    9px               0.505415       0.607436
                          5       1    9py               0.505415       0.607436
                          5       1    9pz               0.505415       0.607436

                          6       1   15dx2              0.505415       0.498648
                          6       1   15dxy              0.505415       0.863684
                          6       1   15dxz              0.505415       0.863684
                          6       1   15dy2              0.505415       0.498648
                          6       1   15dyz              0.505415       0.863684
                          6       1   15dz2              0.505415       0.498648

                          7       1    3s                0.738081       0.567529

                          8       1   10px               0.891931       1.235533
                          8       1   10py               0.891931       1.235533
                          8       1   10pz               0.891931       1.235533

                          9       1   16dx2              0.891931       1.347378
                          9       1   16dxy              0.891931       2.333728
                          9       1   16dxz              0.891931       2.333728
                          9       1   16dy2              0.891931       1.347378
                          9       1   16dyz              0.891931       2.333728
                          9       1   16dz2              0.891931       1.347378

                         10       1    4s                1.184876       0.809403

                         11       1   11px               1.574035       2.513091
                         11       1   11py               1.574035       2.513091
                         11       1   11pz               1.574035       2.513091

                         12       1   17dx2              1.574035       3.640699
                         12       1   17dxy              1.574035       6.305876
                         12       1   17dxz              1.574035       6.305876
                         12       1   17dy2              1.574035       3.640699
                         12       1   17dyz              1.574035       6.305876
                         12       1   17dz2              1.574035       3.640699

                         13       1    5s                1.902139       1.154361

                         14       1   12px               2.777778       5.111660
                         14       1   12py               2.777778       5.111660
                         14       1   12pz               2.777778       5.111660

                         15       1   18dx2              2.777778       9.837395
                         15       1   18dxy              2.777778      17.038868
                         15       1   18dxz              2.777778      17.038868
                         15       1   18dy2              2.777778       9.837395
                         15       1   18dyz              2.777778      17.038868
                         15       1   18dz2              2.777778       9.837395

                         16       1    6s                3.053594       1.646337

                         17       1    7s                4.902082       2.347986

                         18       1   13px               4.902082      10.397185
                         18       1   13py               4.902082      10.397185
                         18       1   13pz               4.902082      10.397185

                         19       1   19dx2              4.902082      26.581250
                         19       1   19dxy              4.902082      46.040076
                         19       1   19dxz              4.902082      46.040076
                         19       1   19dy2              4.902082      26.581250
                         19       1   19dyz              4.902082      46.040076
                         19       1   19dz2              4.902082      26.581250

       Atomic covalent radius [Angstrom]:                                  0.770

       Atomic van der Waals radius [Angstrom]:                             1.700

     The atoms of this atomic kind are PAW atoms (GAPW):
       Hard Gaussian function radius:                                      1.512
       Rho0 radius:                                                        1.512
       Maximum GTO radius used for PAW projector construction:            24.566

     GAPW Soft Basis Set                             aug-SZV-MOLOPT-ae-mini_soft

       Number of orbital shell sets:                                           2
       Number of orbital shells:                                               5
       Number of primitive Cartesian functions:                                5
       Number of Cartesian basis functions:                                    9
       Number of spherical basis functions:                                    9
       Norm type:                                                              2

       Normalised Cartesian orbitals:

                        Set   Shell   Orbital            Exponent    Coefficient

                          1       1    2s                0.114558       0.000000
                                                         0.222289       0.161536
                                                         0.683483       0.214036
                                                         2.941249      -0.160017

                          1       2    3s                0.114558       0.000272
                                                         0.222289       0.256636
                                                         0.683483      -0.079244
                                                         2.941249       0.000032

                          1       3    3px               0.114558       0.000000
                                                         0.222289       0.085276
                                                         0.683483       0.538304
                                                         2.941249       0.856044
                          1       3    3py               0.114558       0.000000
                                                         0.222289       0.085276
                                                         0.683483       0.538304
                                                         2.941249       0.856044
                          1       3    3pz               0.114558       0.000000
                                                         0.222289       0.085276
                                                         0.683483       0.538304
                                                         2.941249       0.856044

                          1       4    4px               0.114558      -0.035043
                                                         0.222289      -0.159067
                                                         0.683483       0.106927
                                                         2.941249      -0.036832
                          1       4    4py               0.114558      -0.035043
                                                         0.222289      -0.159067
                                                         0.683483       0.106927
                                                         2.941249      -0.036832
                          1       4    4pz               0.114558      -0.035043
                                                         0.222289      -0.159067
                                                         0.683483       0.106927
                                                         2.941249      -0.036832

                          2       1    1s                3.530512       0.816191

     AE Potential information for                                            ALL

       Description:                                       All-electron potential
                                          Krack, Parrinello, PCCP 2, 2105 (2000)

       Gaussian exponent of the core charge distribution:               4.109048
       Electronic configuration (s p d ...):                           4   2   0

  2. Atomic kind: H                                     Number of atoms:       3

     Orbital Basis Set                                    aug-SZV-MOLOPT-ae-mini

       Number of orbital shell sets:                                           1
       Number of orbital shells:                                               4
       Number of primitive Cartesian functions:                                7
       Number of Cartesian basis functions:                                    6
       Number of spherical basis functions:                                    6
       Norm type:                                                              2

       Normalised Cartesian orbitals:

                        Set   Shell   Orbital            Exponent    Coefficient

                          1       1    1s                0.065428       0.000000
                                                         0.100112       0.016532
                                                         0.243077       0.102760
                                                         0.625955       0.185857
                                                         1.822143       0.188385
                                                         6.513144       0.143430
                                                        35.523221       0.095030

                          1       2    2s                0.065428       0.083549
                                                         0.100112       0.009605
                                                         0.243077       0.002524
                                                         0.625955       0.013457
                                                         1.822143       0.000000
                                                         6.513144       0.000000
                                                        35.523221       0.000000

                          1       3    3s                0.065428       0.037407
                                                         0.100112      -0.169070
                                                         0.243077      -0.018899
                                                         0.625955       0.012806
                                                         1.822143       0.000000
                                                         6.513144       0.000000
                                                        35.523221       0.000000

                          1       4    2px               0.065428       0.059908
                                                         0.100112      -0.023770
                                                         0.243077       0.000032
                                                         0.625955       0.017779
                                                         1.822143       0.000000
                                                         6.513144       0.000000
                                                        35.523221       0.000000
                          1       4    2py               0.065428       0.059908
                                                         0.100112      -0.023770
                                                         0.243077       0.000032
                                                         0.625955       0.017779
                                                         1.822143       0.000000
                                                         6.513144       0.000000
                                                        35.523221       0.000000
                          1       4    2pz               0.065428       0.059908
                                                         0.100112      -0.023770
                                                         0.243077       0.000032
                                                         0.625955       0.017779
                                                         1.822143       0.000000
                                                         6.513144       0.000000
                                                        35.523221       0.000000

     RI Auxiliary Basis Set             RI_aug-SZV-MOLOPT-ae_N_RI_035_s_p_d_f_g_

       Number of orbital shell sets:                                          15
       Number of orbital shells:                                              15
       Number of primitive Cartesian functions:                               15
       Number of Cartesian basis functions:                                   37
       Number of spherical basis functions:                                   35
       Norm type:                                                              2

       Normalised Cartesian orbitals:

                        Set   Shell   Orbital            Exponent    Coefficient

                          1       1    1s                0.236911       0.242019

                          2       1    8px               0.347892       0.380843
                          2       1    8py               0.347892       0.380843
                          2       1    8pz               0.347892       0.380843

                          3       1    2s                0.423897       0.374417

                          4       1    9px               0.493166       0.589089
                          4       1    9py               0.493166       0.589089
                          4       1    9pz               0.493166       0.589089

                          5       1   14dx2              0.625366       0.723843
                          5       1   14dxy              0.625366       1.253733
                          5       1   14dxz              0.625366       1.253733
                          5       1   14dy2              0.625366       0.723843
                          5       1   14dyz              0.625366       1.253733
                          5       1   14dz2              0.625366       0.723843

                          6       1   10px               0.699103       0.911206
                          6       1   10py               0.699103       0.911206
                          6       1   10pz               0.699103       0.911206

                          7       1    3s                0.758464       0.579244

                          8       1   11px               0.991036       1.409457
                          8       1   11py               0.991036       1.409457
                          8       1   11pz               0.991036       1.409457

                          9       1   15dx2              1.286053       2.556305
                          9       1   15dxy              1.286053       4.427650
                          9       1   15dxz              1.286053       4.427650
                          9       1   15dy2              1.286053       2.556305
                          9       1   15dyz              1.286053       4.427650
                          9       1   15dz2              1.286053       2.556305

                         10       1    4s                1.357095       0.896123

                         11       1   12px               1.404875       2.180155
                         11       1   12py               1.404875       2.180155
                         11       1   12pz               1.404875       2.180155

                         12       1   13px               1.991527       3.372273
                         12       1   13py               1.991527       3.372273
                         12       1   13pz               1.991527       3.372273

                         13       1    5s                2.428204       1.386354

                         14       1    6s                4.344704       2.144768

                         15       1    7s                7.773833       3.318077

       Atomic covalent radius [Angstrom]:                                  0.320

       Atomic van der Waals radius [Angstrom]:                             1.090

     The atoms of this atomic kind are PAW atoms (GAPW):
       Hard Gaussian function radius:                                      1.200
       Rho0 radius:                                                        1.200
       Maximum GTO radius used for PAW projector construction:            24.566

     GAPW Soft Basis Set                             aug-SZV-MOLOPT-ae-mini_soft

       Number of orbital shell sets:                                           1
       Number of orbital shells:                                               4
       Number of primitive Cartesian functions:                                6
       Number of Cartesian basis functions:                                    6
       Number of spherical basis functions:                                    6
       Norm type:                                                              2

       Normalised Cartesian orbitals:

                        Set   Shell   Orbital            Exponent    Coefficient

                          1       1    1s                0.065428       0.000000
                                                         0.100112       0.016532
                                                         0.243077       0.102760
                                                         0.625955       0.185857
                                                         1.822143       0.188385
                                                         6.513144       0.000000

                          1       2    2s                0.065428       0.083549
                                                         0.100112       0.009605
                                                         0.243077       0.002524
                                                         0.625955       0.013457
                                                         1.822143       0.000000
                                                         6.513144       0.000000

                          1       3    3s                0.065428       0.037407
                                                         0.100112      -0.169070
                                                         0.243077      -0.018899
                                                         0.625955       0.012806
                                                         1.822143       0.000000
                                                         6.513144       0.000000

                          1       4    2px               0.065428       0.059908
                                                         0.100112      -0.023770
                                                         0.243077       0.000032
                                                         0.625955       0.017779
                                                         1.822143       0.000000
                                                         6.513144       0.000000
                          1       4    2py               0.065428       0.059908
                                                         0.100112      -0.023770
                                                         0.243077       0.000032
                                                         0.625955       0.017779
                                                         1.822143       0.000000
                                                         6.513144       0.000000
                          1       4    2pz               0.065428       0.059908
                                                         0.100112      -0.023770
                                                         0.243077       0.000032
                                                         0.625955       0.017779
                                                         1.822143       0.000000
                                                         6.513144       0.000000

     AE Potential information for                                            ALL

       Description:                                       All-electron potential
                                          Krack, Parrinello, PCCP 2, 2105 (2000)

       Gaussian exponent of the core charge distribution:              12.500000
       Electronic configuration (s p d ...):                           1   0   0

  3. Atomic kind: F                                     Number of atoms:       1

     Orbital Basis Set                                    aug-SZV-MOLOPT-ae-mini

       Number of orbital shell sets:                                           2
       Number of orbital shells:                                               5
       Number of primitive Cartesian functions:                                8
       Number of Cartesian basis functions:                                    9
       Number of spherical basis functions:                                    9
       Norm type:                                                              2

       Normalised Cartesian orbitals:

                        Set   Shell   Orbital            Exponent    Coefficient

                          1       1    1s                6.464803      -0.288857
                                                         1.502281       0.386371
                                                         0.488588       0.291599
                                                         0.250000       0.000000
                                                         0.120000       0.000000

                          1       2    2s                6.464803       0.000000
                                                         1.502281      -0.205683
                                                         0.488588       0.226370
                                                         0.250000      -0.681175
                                                         0.120000       0.370388

                          1       3    2px               6.464803       2.291000
                                                         1.502281       1.440645
                                                         0.488588       0.228222
                                                         0.250000       0.000000
                                                         0.120000       0.000000
                          1       3    2py               6.464803       2.291000
                                                         1.502281       1.440645
                                                         0.488588       0.228222
                                                         0.250000       0.000000
                                                         0.120000       0.000000
                          1       3    2pz               6.464803       2.291000
                                                         1.502281       1.440645
                                                         0.488588       0.228222
                                                         0.250000       0.000000
                                                         0.120000       0.000000

                          1       4    3px               6.464803       0.000000
                                                         1.502281      -0.282020
                                                         0.488588       0.009318
                                                         0.250000      -0.007900
                                                         0.120000       0.104145
                          1       4    3py               6.464803       0.000000
                                                         1.502281      -0.282020
                                                         0.488588       0.009318
                                                         0.250000      -0.007900
                                                         0.120000       0.104145
                          1       4    3pz               6.464803       0.000000
                                                         1.502281      -0.282020
                                                         0.488588       0.009318
                                                         0.250000      -0.007900
                                                         0.120000       0.104145

                          2       1    1s              166.679130       5.102329
                                                        30.360812       4.934748
                                                         8.216821       1.537947

     RI Auxiliary Basis Set             RI_aug-SZV-MOLOPT-ae-mini_N_RI_055_s_p_d

       Number of orbital shell sets:                                          19
       Number of orbital shells:                                              19
       Number of primitive Cartesian functions:                               19
       Number of Cartesian basis functions:                                   61
       Number of spherical basis functions:                                   55
       Norm type:                                                              2

       Normalised Cartesian orbitals:

                        Set   Shell   Orbital            Exponent    Coefficient

                          1       1    1s                0.261857       0.260890

                          2       1    8px               0.267271       0.273924
                          2       1    8py               0.267271       0.273924
                          2       1    8pz               0.267271       0.273924

                          3       1   14dx2              0.303171       0.203874
                          3       1   14dxy              0.303171       0.353120
                          3       1   14dxz              0.303171       0.353120
                          3       1   14dy2              0.303171       0.203874
                          3       1   14dyz              0.303171       0.353120
                          3       1   14dz2              0.303171       0.203874

                          4       1    2s                0.519983       0.436417

                          5       1    9px               0.597200       0.748324
                          5       1    9py               0.597200       0.748324
                          5       1    9pz               0.597200       0.748324

                          6       1   15dx2              0.613258       0.699495
                          6       1   15dxy              0.613258       1.211561
                          6       1   15dxz              0.613258       1.211561
                          6       1   15dy2              0.613258       0.699495
                          6       1   15dyz              0.613258       1.211561
                          6       1   15dz2              0.613258       0.699495

                          7       1    3s                0.965318       0.694085

                          8       1   10px               1.248304       1.880792
                          8       1   10py               1.248304       1.880792
                          8       1   10pz               1.248304       1.880792

                          9       1   16dx2              1.257419       2.457533
                          9       1   16dxy              1.257419       4.256572
                          9       1   16dxz              1.257419       4.256572
                          9       1   16dy2              1.257419       2.457533
                          9       1   16dyz              1.257419       4.256572
                          9       1   16dz2              1.257419       2.457533

                         10       1    4s                1.757509       1.087886

                         11       1   11px               2.536777       4.563447
                         11       1   11py               2.536777       4.563447
                         11       1   11pz               2.536777       4.563447

                         12       1   17dx2              2.579536       8.641862
                         12       1   17dxy              2.579536      14.968144
                         12       1   17dxz              2.579536      14.968144
                         12       1   17dy2              2.579536       8.641862
                         12       1   17dyz              2.579536      14.968144
                         12       1   17dz2              2.579536       8.641862

                         13       1    5s                3.238188       1.720428

                         14       1   12px               5.260129      11.354960
                         14       1   12py               5.260129      11.354960
                         14       1   12pz               5.260129      11.354960

                         15       1   18dx2              5.260849      30.078570
                         15       1   18dxy              5.260849      52.097612
                         15       1   18dxz              5.260849      52.097612
                         15       1   18dy2              5.260849      30.078570
                         15       1   18dyz              5.260849      52.097612
                         15       1   18dz2              5.260849      30.078570

                         16       1    6s                5.902549       2.698919

                         17       1    7s               10.731164       4.225666

                         18       1   13px              10.738709      27.709595
                         18       1   13py              10.738709      27.709595
                         18       1   13pz              10.738709      27.709595

                         19       1   19dx2             10.784048     105.627648
                         19       1   19dxy             10.784048     182.952453
                         19       1   19dxz             10.784048     182.952453
                         19       1   19dy2             10.784048     105.627648
                         19       1   19dyz             10.784048     182.952453
                         19       1   19dz2             10.784048     105.627648

       Atomic covalent radius [Angstrom]:                                  0.720

       Atomic van der Waals radius [Angstrom]:                             1.470

     The atoms of this atomic kind are PAW atoms (GAPW):
       Hard Gaussian function radius:                                      1.512
       Rho0 radius:                                                        1.512
       Maximum GTO radius used for PAW projector construction:            24.566

     GAPW Soft Basis Set                             aug-SZV-MOLOPT-ae-mini_soft

       Number of orbital shell sets:                                           2
       Number of orbital shells:                                               5
       Number of primitive Cartesian functions:                                4
       Number of Cartesian basis functions:                                    9
       Number of spherical basis functions:                                    9
       Norm type:                                                              2

       Normalised Cartesian orbitals:

                        Set   Shell   Orbital            Exponent    Coefficient

                          1       1    1s                1.502281       0.386371
                                                         0.488588       0.291599
                                                         0.250000       0.000000
                                                         0.120000       0.000000

                          1       2    2s                1.502281      -0.205683
                                                         0.488588       0.226370
                                                         0.250000      -0.681175
                                                         0.120000       0.370388

                          1       3    2px               1.502281       1.440645
                                                         0.488588       0.228222
                                                         0.250000       0.000000
                                                         0.120000       0.000000
                          1       3    2py               1.502281       1.440645
                                                         0.488588       0.228222
                                                         0.250000       0.000000
                                                         0.120000       0.000000
                          1       3    2pz               1.502281       1.440645
                                                         0.488588       0.228222
                                                         0.250000       0.000000
                                                         0.120000       0.000000

                          1       4    3px               1.502281      -0.282020
                                                         0.488588       0.009318
                                                         0.250000      -0.007900
                                                         0.120000       0.104145
                          1       4    3py               1.502281      -0.282020
                                                         0.488588       0.009318
                                                         0.250000      -0.007900
                                                         0.120000       0.104145
                          1       4    3pz               1.502281      -0.282020
                                                         0.488588       0.009318
                                                         0.250000      -0.007900
                                                         0.120000       0.104145

                          2       1    1s         

     AE Potential information for                                            ALL

       Description:                                       All-electron potential
                                          Krack, Parrinello, PCCP 2, 2105 (2000)

       Gaussian exponent of the core charge distribution:              10.470541
       Electronic configuration (s p d ...):                           4   5   0


 MOLECULE KIND INFORMATION


 All atoms are their own molecule, skipping detailed information


 TOTAL NUMBERS AND MAXIMUM NUMBERS

  Total number of            - Atomic kinds:                                   3
                             - Atoms:                                          6
                             - Shell sets:                                     9
                             - Shells:                                        27
                             - Primitive Cartesian functions:                 43
                             - Cartesian basis functions:                     45
                             - Spherical basis functions:                     45

  Maximum angular momentum of the orbital basis functions:                     1


 MODULE QUICKSTEP: ATOMIC COORDINATES IN ANGSTROM

   Atom Kind Element         X             Y             Z       Z(eff)     Mass
      1    1 C     6     14.297486     15.332043     15.000000   6.0000  12.0107
      2    1 C     6     15.441950     14.663863     15.000000   6.0000  12.0107
      3    2 H     1     14.276748     16.411901     15.000000   1.0000   1.0079
      4    2 H     1     13.370495     14.779879     15.000000   1.0000   1.0079
      5    2 H     1     15.546608     13.588099     15.000000   1.0000   1.0079
      6    3 F     9     16.629505     15.290630     15.000000   9.0000  18.9984



 SCF PARAMETERS         Density guess:                                   RESTART
                        --------------------------------------------------------
                        max_scf:                                             500
                        max_scf_history:                                       0
                        max_diis:                                              4
                        --------------------------------------------------------
                        eps_scf:                                        1.00E-06
                        eps_scf_history:                                0.00E+00
                        eps_diis:                                       0.00E+00
                        eps_eigval:                                     1.00E-05
                        --------------------------------------------------------
                        level_shift [a.u.]:                             0.000000
                        --------------------------------------------------------
                        Outer loop SCF in use 
                        No variables optimised in outer loop
                        eps_scf                                         1.00E-06
                        max_scf                                               20
                        No outer loop optimization
                        step_size                                       5.00E-01

 PW_GRID| Information for grid number                                          1
 PW_GRID| Grid distributed over                                    16 processors
 PW_GRID| Real space group dimensions                                    16    1
 PW_GRID| the grid is blocked:                                                NO
 PW_GRID| Cutoff [a.u.]                                                    250.0
 PW_GRID| spherical cutoff:                                                   NO
 PW_GRID|   Bounds   1           -202     202                Points:         405
 PW_GRID|   Bounds   2           -202     202                Points:         405
 PW_GRID|   Bounds   3           -202     202                Points:         405
 PW_GRID| Volume element (a.u.^3)  0.2743E-02     Volume (a.u.^3)    182205.0337
 PW_GRID| Grid span                                                    FULLSPACE
 PW_GRID|   Distribution                         Average         Max         Min
 PW_GRID|   G-Vectors                          4151882.8     4152060     4151655
 PW_GRID|   G-Rays                               10251.6       10252       10251
 PW_GRID|   Real Space Points                  4151882.8     4264650     4100625

 PW_GRID| Information for grid number                                          2
 PW_GRID| Number of the reference grid                                         1
 PW_GRID| Grid distributed over                                    16 processors
 PW_GRID| Real space group dimensions                                    16    1
 PW_GRID| the grid is blocked:                                                NO
 PW_GRID| Cutoff [a.u.]                                                     83.3
 PW_GRID| spherical cutoff:                                                   NO
 PW_GRID|   Bounds   1           -120     119                Points:         240
 PW_GRID|   Bounds   2           -120     119                Points:         240
 PW_GRID|   Bounds   3           -120     119                Points:         240
 PW_GRID| Volume element (a.u.^3)  0.1318E-01     Volume (a.u.^3)    182205.0337
 PW_GRID| Grid span                                                    FULLSPACE
 PW_GRID|   Distribution                         Average         Max         Min
 PW_GRID|   G-Vectors                           864000.0      864720      863520
 PW_GRID|   G-Rays                                3600.0        3603        3598
 PW_GRID|   Real Space Points                   864000.0      864000      864000

 PW_GRID| Information for grid number                                          3
 PW_GRID| Number of the reference grid                                         1
 PW_GRID| Grid distributed over                                    16 processors
 PW_GRID| Real space group dimensions                                    16    1
 PW_GRID| the grid is blocked:                                                NO
 PW_GRID| Cutoff [a.u.]                                                     27.8
 PW_GRID| spherical cutoff:                                                   NO
 PW_GRID|   Bounds   1            -67      67                Points:         135
 PW_GRID|   Bounds   2            -67      67                Points:         135
 PW_GRID|   Bounds   3            -67      67                Points:         135
 PW_GRID| Volume element (a.u.^3)  0.7406E-01     Volume (a.u.^3)    182205.0337
 PW_GRID| Grid span                                                    FULLSPACE
 PW_GRID|   Distribution                         Average         Max         Min
 PW_GRID|   G-Vectors                           153773.4      154170      153630
 PW_GRID|   G-Rays                                1139.1        1142        1138
 PW_GRID|   Real Space Points                   153773.4      164025      145800

 PW_GRID| Information for grid number                                          4
 PW_GRID| Number of the reference grid                                         1
 PW_GRID| Grid distributed over                                    16 processors
 PW_GRID| Real space group dimensions                                    16    1
 PW_GRID| the grid is blocked:                                                NO
 PW_GRID| Cutoff [a.u.]                                                      9.3
 PW_GRID| spherical cutoff:                                                   NO
 PW_GRID|   Bounds   1            -40      39                Points:          80
 PW_GRID|   Bounds   2            -40      39                Points:          80
 PW_GRID|   Bounds   3            -40      39                Points:          80
 PW_GRID| Volume element (a.u.^3)  0.3559         Volume (a.u.^3)    182205.0337
 PW_GRID| Grid span                                                    FULLSPACE
 PW_GRID|   Distribution                         Average         Max         Min
 PW_GRID|   G-Vectors                            32000.0       32240       31840
 PW_GRID|   G-Rays                                 400.0         403         398
 PW_GRID|   Real Space Points                    32000.0       32000       32000

 POISSON| Solver                                                         WAVELET
 POISSON| Wavelet| Scaling function                                           40
 POISSON| Periodicity                                                       NONE

 RS_GRID| Information for grid number                                          1
 RS_GRID|   Bounds   1           -202     202                Points:         405
 RS_GRID|   Bounds   2           -202     202                Points:         405
 RS_GRID|   Bounds   3           -202     202                Points:         405
 RS_GRID| Real space distribution over                                  4 groups
 RS_GRID| Real space distribution along direction                              2
 RS_GRID| Border size                                                         33
 RS_GRID| Real space distribution over                                  4 groups
 RS_GRID| Real space distribution along direction                              3
 RS_GRID| Border size                                                         33
 RS_GRID|   Distribution                         Average         Max         Min
 RS_GRID|   Planes                                 167.2         168         167
 RS_GRID|   Distribution                         Average         Max         Min
 RS_GRID|   Planes                                 167.2         168         167

 RS_GRID| Information for grid number                                          2
 RS_GRID|   Bounds   1           -120     119                Points:         240
 RS_GRID|   Bounds   2           -120     119                Points:         240
 RS_GRID|   Bounds   3           -120     119                Points:         240
 RS_GRID| Real space distribution over                                  4 groups
 RS_GRID| Real space distribution along direction                              2
 RS_GRID| Border size                                                         34
 RS_GRID| Real space distribution over                                  4 groups
 RS_GRID| Real space distribution along direction                              3
 RS_GRID| Border size                                                         34
 RS_GRID|   Distribution                         Average         Max         Min
 RS_GRID|   Planes                                 128.0         128         128
 RS_GRID|   Distribution                         Average         Max         Min
 RS_GRID|   Planes                                 128.0         128         128

 RS_GRID| Information for grid number                                          3
 RS_GRID|   Bounds   1            -67      67                Points:         135
 RS_GRID|   Bounds   2            -67      67                Points:         135
 RS_GRID|   Bounds   3            -67      67                Points:         135
 RS_GRID| Real space fully replicated
 RS_GRID| Group size                                                           1

 RS_GRID| Information for grid number                                          4
 RS_GRID|   Bounds   1            -40      39                Points:          80
 RS_GRID|   Bounds   2            -40      39                Points:          80
 RS_GRID|   Bounds   3            -40      39                Points:          80
 RS_GRID| Real space fully replicated
 RS_GRID| Group size                                                           1

  HFX_INFO| Replica ID:                                                        1
  HFX_INFO| FRACTION:                                               0.2500000000
  HFX_INFO| Interaction Potential:                                       COULOMB
  HFX_INFO| EPS_SCHWARZ:                                                 1.0E-10
  HFX_INFO| EPS_SCHWARZ_FORCES                                           1.0E-08
  HFX_INFO| EPS_STORAGE_SCALING:                                         1.0E+00
  HFX_INFO| NBINS:                                                            64
  HFX_INFO| BLOCK_SIZE:                                                        1
  HFX_INFO| Number of periodic shells considered:                           NONE
  HFX_INFO| Number of periodic cells considered:                            NONE


 OVERLAP MATRIX CONDITION NUMBER
 1-Norm Condition Number (Estimate)
   CN : |A|*|A^-1|:  1.189E+001 *  1.525E+003   = 1.813E+004  Log(1-CN):  4.2583
 1-Norm and 2-Norm Condition Numbers using Diagonalization
   CN : |A|*|A^-1|:  1.189E+001 *  1.525E+003   = 1.813E+004  Log(1-CN):  4.2583
   CN : max/min ev:  7.825E+000 /  1.211E-003   = 6.459E+003  Log(2-CN):  3.8102

 Number of electrons:                                                         24
 Number of occupied orbitals:                                                 12
 Number of molecular orbitals:                                                12

 Number of orbital functions:                                                 45
 Number of independent orbital functions:                                     45

 Extrapolation method: initial_guess


 SCF WAVEFUNCTION OPTIMIZATION

  ----------------------------------- OT ---------------------------------------
  Minimizer      : CG                  : conjugate gradient
  Preconditioner : FULL_SINGLE_INVERSE : inversion of 
                                         H + eS - 2*(Sc)(c^T*H*c+const)(Sc)^T
  Precond_solver : DEFAULT
  Line search    : 3PNT                : 3 energies
  stepsize       :    0.08000000                  energy_gap     :    0.08000000
  eps_taylor     :   0.10000E-15                  max_taylor     :             4
  ----------------------------------- OT ---------------------------------------

  Step     Update method      Time    Convergence         Total energy    Change
  ------------------------------------------------------------------------------

  HFX_MEM_INFO| Est. max. program size before HFX [MiB]:                    2330
  HFX_MEM_INFO| Number of cart. primitive ERI's calculated:             67011069
  HFX_MEM_INFO| Number of sph. ERI's calculated:                          741096
  HFX_MEM_INFO| Number of sph. ERI's stored in-core:                      741096
  HFX_MEM_INFO| Number of sph. ERI's stored on disk:                           0
  HFX_MEM_INFO| Number of sph. ERI's calculated on the fly:                    0
  HFX_MEM_INFO| Total memory consumption ERI's RAM [MiB]:                      2
  HFX_MEM_INFO| Whereof max-vals [MiB]:                                        1
  HFX_MEM_INFO| Total compression factor ERI's RAM:                         3.03
  HFX_MEM_INFO| Total memory consumption ERI's disk [MiB]:                     0
  HFX_MEM_INFO| Total compression factor ERI's disk:                        0.00
  HFX_MEM_INFO| Size of density/Fock matrix [MiB]:                             0
  HFX_MEM_INFO| Size of buffers [MiB]:                                         0
  HFX_MEM_INFO| Est. max. program size after HFX  [MiB]:                    2802

     1 OT CG       0.64E-01    4.1     0.00000502      -175.5036016310 -1.76E+02
     - OT LS       0.32E-01    2.2                     -175.5036016278
     - OT LS       0.67E-02    2.2                     -175.5036016304
     2 OT CG       0.54E-02    3.0     0.00000231      -175.5036016311 -4.54E-11
     - OT LS       0.75E-02    2.2                     -175.5036016311
     - OT LS       0.20E-01    2.2                     -175.5036016311
     3 OT CG       0.16E-01    3.0     0.00000276      -175.5036016311 -2.83E-11
     - OT LS       0.22E-01    2.2                     -175.5036016312
     - OT LS       0.27E-01    2.2                     -175.5036016312
     4 OT CG       0.21E-01    3.0     0.00000338      -175.5036016312 -5.43E-11
     - OT LS       0.30E-01    2.2                     -175.5036016312
     - OT LS       0.15E-01    2.2                     -175.5036016312
     5 OT CG       0.12E-01    3.0     0.00000274      -175.5036016312 -4.60E-11
     - OT LS       0.17E-01    2.2                     -175.5036016312
     - OT LS       0.10E-01    2.2                     -175.5036016312
     6 OT CG       0.81E-02    3.1     0.00000124      -175.5036016312 -2.04E-11
     - OT LS       0.11E-01    2.2                     -175.5036016312
     - OT LS       0.14E-01    2.2                     -175.5036016312
     7 OT CG       0.11E-01    3.1     0.00000092      -175.5036016312 -5.57E-12

  *** SCF run converged in     7 steps ***


  Electronic density on regular grids:        -18.3426260237        5.6573739763
  Core density on regular grids:               24.0000000000       -0.0000000000
  Hard and soft densities (Lebedev):          -62.4937812862      -56.8364075984
  Total Rho_soft + Rho1_hard - Rho1_soft      -23.9999997116
  Total charge density (r-space):               0.0000002884
  Total Rho_soft + Rho0_soft (g-space):         0.0000002401

  Overlap energy of the core charge distribution:               0.00000895178842
  Self energy of the core charge distribution:               -167.02030479950878
  Core Hamiltonian energy:                                    -17.88080142908711
  Hartree energy:                                              50.30467077524742
  Exchange-correlation energy:                                 -7.09987755684072
  Hartree-Fock Exchange energy:                                -5.30936017646239

  GAPW| Exc from hard and soft atomic rho1:                    -9.53770824574478
  GAPW| local Eh = 1 center integrals:                        -18.96022915063143

  Total energy:                                              -175.50360163123932

  outer SCF iter =    1 RMS gradient =   0.92E-06 energy =       -175.5036016312
  outer SCF loop converged in   1 iterations or   19 steps


 !-----------------------------------------------------------------------------!
                     Mulliken Population Analysis

 #  Atom  Element  Kind  Atomic population                           Net charge
       1     C        1          6.186515                             -0.186515
       2     C        1          5.735328                              0.264672
       3     H        2          0.854664                              0.145336
       4     H        2          0.960354                              0.039646
       5     H        2          0.874893                              0.125107
       6     F        3          9.388245                             -0.388245
 # Total charge                             24.000000                  0.000000

 !-----------------------------------------------------------------------------!

 !-----------------------------------------------------------------------------!
                           Hirshfeld Charges

  #Atom  Element  Kind  Ref Charge     Population                    Net charge
      1       C      1       6.000          6.967                        -0.967
      2       C      1       6.000          6.166                        -0.166
      3       H      2       1.000          0.501                         0.499
      4       H      2       1.000          0.503                         0.497
      5       H      2       1.000          0.509                         0.491
      6       F      3       9.000          9.339                        -0.339

  Total Charge                                                            0.016
 !-----------------------------------------------------------------------------!

 *******************************************************************************
 **                                                                           **
 **         ######## #######   #######   ######## #######  ########           **
 **            ##    ##     ## ##     ## ##       ##   ##     ##              **
 **            ##    ##     ## ##     ## ######   #######     ##              **
 **            ##    ##     ## ##     ## ##       ##          ##              **
 **            ##    #######   #######   ##       ##          ##              **
 **                                                                           **
 *******************************************************************************
 KERNEL|                                                                    FULL
 FUNCTIONAL| PBE:
 FUNCTIONAL| J.P.Perdew, K.Burke, M.Ernzerhof, Phys. Rev. Letter, vol. 77, n 18,
 FUNCTIONAL|  pp. 3865-3868, (1996)sx=0.750sc=1.000{spin unpolarized}           
 KERNEL|                                                          Exact Exchange
 KERNEL| Spin symmetry of excitations                                    Singlet
 TDDFPT| Number of states calculated                                          20
 TDDFPT| Number of Davidson iterations                                       100
 TDDFPT| Davidson iteration convergence                                0.367E-07
 TDDFPT| Max. number of Krylov space vectors                                5000
 TDDFPT| Molecular Orbitals:        Spin       AOs       Occ      Virt     Total
 TDDFPT|                               1        45        12        33        45
 
 -------------------------------------------------------------------------------
 -                            TDDFPT Initial Guess                             -
 -------------------------------------------------------------------------------
          State         Occupied      ->      Virtual          Excitation
          number         orbital              orbital          energy (eV)
 -------------------------------------------------------------------------------
             1               12                   13              7.82187
             2               12                   14              8.53397
             3               12                   15              8.97484
             4               12                   16              9.66029
             5               12                   17             10.03846
             6               12                   18             10.20782
             7               12                   19             10.63078
             8               11                   13             10.77581
             9               12                   20             11.28153
            10               11                   14             11.48791
            11               12                   21             11.58649
            12               10                   13             11.82430
            13               11                   15             11.92878
            14               12                   22             12.03980
            15               10                   14             12.53640
            16               12                   23             12.53849
            17               11                   16             12.61423
            18               10                   15             12.97727
            19               11                   17             12.99240
            20               11                   18             13.16176

      Number of active states:                                        396
 -------------------------------------------------------------------------------
 
 -------------------------------------------------------------------------------
 -                      TDDFPT WAVEFUNCTION OPTIMIZATION                       -
 -------------------------------------------------------------------------------

          Step            Time         Convergence           Conv. states
 -------------------------------------------------------------------------------

    State    Exc. energy (eV)      Convergence (eV)
        1       7.2572768            -5.6459E-01
        2       7.7782661            -7.5570E-01
        3       8.3752954            -5.9954E-01
        4       8.6647572            -9.9553E-01
        5       8.7272888            -1.3112E+00
        6       8.8983603            -1.3095E+00
        7       9.2819430            -1.3488E+00
        8       9.3234742            -1.4523E+00
        9       9.9523836            -1.3291E+00
       10      10.2161352            -1.2718E+00
       11      10.3508950            -1.2356E+00
       12      10.4269153            -1.3974E+00
       13      10.8700375            -1.0587E+00
       14      11.1983743            -8.4142E-01
       15      11.3268393            -1.2096E+00
       16      11.4130093            -1.1255E+00
[...]
 Chulkov, M. H. Bani-Hashemian, V. Weber, U. Borstnik, M. Taillefumier, A. S. 
 Jakobovits, A. Lazzaro, H. Pabst, T. Mueller, R. Schade, M. Guidon, S. 
 Andermatt, N. Holmberg, G. K. Schenter, A. Hehn, A. Bussy, F. Belleflamme, G. 
 Tabacchi, A. Gloess, M. Lass, I. Bethune, C. J. Mundy, C. Plessl, M. Watkins, 
 J. VandeVondele, M. Krack, J. Hutter.
 J. Chem. Phys. 152, 194103 (2020).
 CP2K: An electronic structure and molecular dynamics software package - 
 Quickstep: Efficient and accurate electronic structure calculations.
 https://doi.org/10.1063/5.0007045

 O. Schuett, P. Messmer, J. Hutter, J. VandeVondele.
 Electronic Structure Calculations on Graphics Processing Units, 173-190 (2016).
 GPU-Accelerated Sparse Matrix-Matrix Multiplication for Linear Scaling Density 
 Functional Theory.
 https://doi.org/10.1002/9781118670712.ch8

 A. Heinecke, G. Henry, M. Hutchinson, H. Pabst.
 Proceedings of Intl. Supercomputing Conference, 981-991 (2016).
 LIBXSMM: Accelerating Small Matrix Multiplications by Runtime Code Generation.
 https://doi.org/10.1109/SC.2016.83

 J. Hutter, M. Iannuzzi, F. Schiffmann, J. VandeVondele.
 WIREs Comput Mol Sci. 4, 15-25 (2014).
 CP2K: atomistic simulations of condensed matter systems.
 https://doi.org/10.1002/wcms.1159

 U. Borstnik, J. VandeVondele, V. Weber, J. Hutter.
 Parallel Comput. 40, 47-58 (2014).
 Sparse matrix multiplication: The distributed block-compressed sparse row 
 library.
 https://doi.org/10.1016/j.parco.2014.03.012

 A. Marek, V. Blum, R. Johanni, V. Havu, B. Lang, T. Auckenthaler, A. Heinecke, 
 H. Bungartz, H. Lederer.
 J. Phys. Condens. Matter 26, 213201 (2014).
 The ELPA library: scalable parallel eigenvalue solutions for electronic 
 structure theory and computational science.
 https://doi.org/10.1088/0953-8984/26/21/213201

 M. Guidon, J. Hutter, J. VandeVondele.
 J. Chem. Theory Comput. 5, 3010-3021 (2009).
 Robust Periodic Hartree-Fock Exchange for Large-Scale Simulations Using 
 Gaussian Basis Sets.
 https://doi.org/10.1021/ct900494g

 M. Guidon, F. Schiffmann, J. Hutter, J. VandeVondele.
 J. Chem. Phys. 128, 214104 (2008).
 Ab initio molecular dynamics using hybrid density functionals.
 https://doi.org/10.1063/1.2931945

 L. Genovese, T. Deutsch, S. Goedecker.
 J. Chem. Phys. 127, 054704 (2007).
 Efficient and accurate three-dimensional Poisson solver for surface problems.
 https://doi.org/10.1063/1.2754685

 J. VandeVondele, J. Hutter.
 J. Chem. Phys. 127, 114105 (2007).
 Gaussian basis sets for accurate calculations on molecular systems in gas and 
 condensed phases.
 https://doi.org/10.1063/1.2770708

 L. Genovese, T. Deutsch, A. Neelov, S. Goedecker, G. Beylkin.
 J. Chem. Phys. 125, 074105 (2006).
 Efficient solution of Poisson's equation with free boundary conditions.
 https://doi.org/10.1063/1.2335442

 M. Iannuzzi, T. Chassaing, T. Wallman, J. Hutter.
 CHIMIA 59, 499-503 (2005).
 Ground and excited state density functional calculations with the Gaussian and 
 augmented-plane-wave method.
 https://doi.org/10.2533/000942905777676164

 M. Frigo, S. G. Johnson.
 Proc. IEEE 93, 216-231 (2005).
 The design and implementation of FFTW3.
 https://doi.org/10.1109/JPROC.2004.840301

 J. VandeVondele, J. Hutter.
 J. Chem. Phys. 118, 4365-4369 (2003).
 An efficient orbital transformation method for electronic structure 
 calculations.
 https://doi.org/10.1063/1.1543154

 R. L. Martin.
 J. Chem. Phys. 118, 4775-4777 (2003).
 Natural transition orbitals.
 https://doi.org/10.1063/1.1558471

 M. Krack, M. Parrinello.
 Phys. Chem. Chem. Phys. 2, 2105-2112 (2000).
 All-electron ab-initio molecular dynamics.
 https://doi.org/10.1039/b001167n

 G. Lippert, J. Hutter, M. Parrinello.
 Theor. Chem. Acc. 103, 124-140 (1999).
 The Gaussian and augmented-plane-wave density functional method for ab initio 
 molecular dynamics simulations.
 https://doi.org/10.1007/s002140050523

 J. P. Perdew, K. Burke, M. Ernzerhof.
 Phys. Rev. Lett. 77, 3865-3868 (1996).
 Generalized gradient approximation made simple.
 https://doi.org/10.1103/PhysRevLett.77.3865


 -------------------------------------------------------------------------------
 -                                                                             -
 -                                T I M I N G                                  -
 -                                                                             -
 -------------------------------------------------------------------------------
 SUBROUTINE                       CALLS  ASD         SELF TIME        TOTAL TIME
                                MAXIMUM       AVERAGE  MAXIMUM  AVERAGE  MAXIMUM
 CP2K                                 1  1.0    0.017    0.034  466.395  466.402
 qs_energies                          1  2.0    0.000    0.000  465.467  465.473
 qs_energies_properties               1  3.0    0.000    0.000  415.516  415.522
 tddfpt                               1  4.0    0.001    0.002  415.516  415.522
 tddfpt_energies                      1  5.0    0.000    0.000  415.506  415.512
 tddfpt_davidson_solver               1  6.0    0.000    0.001  414.140  414.147
 tddfpt_compute_Aop_evects            7  7.0    0.000    0.000  413.830  413.836
 fhxc_kernel                          7  8.0    0.005    0.005  407.889  407.896
 fft_wrap_pw1pw2                   3087 11.4    0.063    0.070  238.064  238.934
 fft_wrap_pw1pw2_250               2163 12.4    9.099    9.484  230.588  232.197
 tddfpt_apply_coulomb               140  9.0    0.002    0.002  167.438  167.894
 fft3d_ps                          3087 13.4   82.332   87.858  159.767  164.968
 pw_poisson_solve                   159  9.8    4.584    5.275  161.945  162.257
 tddfpt_apply_xc_analytic           140  9.0    0.666    0.714  126.955  127.366
 xc_pw_derive                       921 11.0    0.006    0.007  109.476  110.259
 ps_wavelet_solve                   159 10.8   87.706   92.526  102.369  102.747
 xc_calc_2nd_deriv_analytical       700 10.4    5.040    5.337   73.954   73.999
 xc_pw_divergence                   147 11.0    0.003    0.004   70.193   70.884
 qs_rho_update_rho_low              161  8.5    0.002    0.002   64.749   64.750
 calculate_rho_elec                 161  9.5    2.502    2.570   64.690   64.691
 mp_alltoall_z22v                  3087 15.4   49.201   61.001   49.201   61.001
 density_rs2pw                      161 10.5    0.006    0.006   51.135   51.604
 scf_env_do_scf                       1  3.0    0.000    0.000   48.868   48.868
 mp_alltoall_d54                    159 11.8    9.188   46.771    9.188   46.771
 x_to_yz                           1535 14.0   14.887   15.882   40.997   46.009
 scf_env_do_scf_inner_loop           19  4.0    0.000    0.001   44.734   44.735
 yz_to_x                           1552 14.7   13.291   14.266   36.382   41.677
 qs_ks_update_qs_env                 20  5.0    0.000    0.000   41.124   41.125
 rebuild_ks_matrix                   19  6.0    0.000    0.000   41.123   41.124
 qs_ks_build_kohn_sham_matrix        19  7.0    0.003    0.003   41.123   41.124
 pw_gather_p                       1552 13.7   31.685   35.363   31.685   35.363
 integrate_v_rspace                 147  9.0    0.004    0.004   33.357   33.397
 potential_pw2rs                    147 10.0    0.057    0.060   32.990   33.020
 prepare_gapw_den                   160  8.9    0.002    0.002   27.808   28.617
 put_rho0_on_grid                   160  9.9    2.501    2.574   27.599   28.409
 pw_scatter_p                      1535 13.0   27.395   27.985   27.395   27.985
 transfer_pw2rs                     748 10.9    0.011    0.013   21.067   21.792
 transfer_rs2pw                     805 11.4    0.013    0.016   17.944   18.771
 mp_waitany                       18740 13.1   13.947   17.980   13.947   17.980
 transfer_pw2rs_250                 307 11.9    5.832    7.023   15.709   17.169
 transfer_rs2pw_250                 322 12.2    5.662    7.003   13.214   14.286
 pw_derive                         1398 11.9   12.239   12.896   12.239   12.896
 qs_vxc_create                       19  8.0    0.000    0.000   12.685   12.686
 grid_collocate_task_list           161 10.5   10.642   11.292   10.642   11.292
 mp_waitall_1                     80157 14.1    5.807   10.555    5.807   10.555
 integrate_vhg0_rspace              159  9.8    0.028    0.041   10.468   10.495
 xc_rho_set_and_dset_create          20  9.9    0.179    0.200    8.374    9.696
 mp_alltoall_d11v                 11795 11.8    5.260    9.235    5.260    9.235
 mp_alltoall_d45                    160 11.8    4.383    7.576    4.383    7.576
 fft_wrap_pw1pw2_90                 308 12.3    0.236    0.252    6.290    7.477
 pw_copy                           2050 11.1    6.951    7.340    6.951    7.340
 pw_poisson_set                     160 10.7    0.003    0.003    6.597    6.998
 xc_vxc_pw_create                     7  9.0    0.158    0.165    6.839    6.839
 cp2k_distribution_to_z_slices      159 10.8    3.585    4.377    6.457    6.705
 integrate_four_center              299  9.9    2.949    5.820    6.312    6.335
 pw_copy_to_array                  1552 13.7    5.885    6.261    5.885    6.261
 xc_exc_calc                         12  9.0    0.187    0.194    5.847    5.847
 tddfpt_apply_hfx                     7  8.0    0.001    0.001    5.833    5.833
 pw_axpy                           1678 11.1    5.320    5.681    5.320    5.681
 mp_sync                           1551 11.7    2.867    5.680    2.867    5.680
 tddft_hfx_matrix                   280  9.0    0.002    0.003    5.460    5.476
 mp_sum_d                          2353  7.8    3.232    5.338    3.232    5.338
 pw_integral_ab_c1d_c1d_gs          159 10.8    3.491    3.763    4.477    5.142
 transfer_pw2rs_90                  147 12.0    0.741    0.955    3.461    4.166
 init_scf_loop                        1  4.0    0.000    0.000    4.132    4.133
 pw_copy_from_array                1535 13.0    3.879    4.091    3.879    4.091
 pw_zero                           1928 10.6    3.642    3.860    3.642    3.860
 mp_isend_dm3                      3748 13.1    0.727    3.600    0.727    3.600
 rs_grid_zero                       774 12.0    3.366    3.449    3.366    3.449
 mp_isend_dv                      25525 13.6    0.912    3.131    0.912    3.131
 transfer_rs2pw_90                  161 12.5    0.730    0.887    2.764    2.983
 mp_irecv_dm3                      3748 13.1    0.406    2.411    0.406    2.411
 xc_functional_eval                 656 10.9    0.001    0.001    0.695    2.118
 pbe_lda_eval                       656 11.9    0.694    2.117    0.694    2.117
 transfer_pw2rs_30                  147 12.0    0.603    0.679    1.539    1.907
 prepare_dr1dr                      700 11.4    1.510    1.684    1.510    1.684
 transfer_rs2pw_30                  161 12.5    0.546    0.676    1.531    1.659
 sum_up_and_integrate                 7  8.0    0.000    0.000    1.634    1.643
 mp_sum_dm                         2915 10.6    0.878    1.570    0.878    1.570
 mp_sendrecv_dv                    4830 13.5    1.294    1.406    1.294    1.406
 scale_and_distribute               318 11.8    1.183    1.312    1.183    1.312
 mp_max_i                           634  4.2    0.635    1.081    0.635    1.081
 fft_wrap_pw1pw2_30                 308 12.3    0.045    0.048    0.910    1.078
 pw_poisson_rebuild                 159 10.8    0.000    0.000    0.976    0.999
 ps_wavelet_create                    1 10.0    0.000    0.000    0.976    0.999
 RS_z_slice_distribution              1 11.0    0.884    0.951    0.976    0.999
 hfx_ks_matrix                       19  8.0    0.000    0.000    0.855    0.866
 qs_init_subsys                       1  2.0    0.001    0.001    0.797    0.797
 qs_env_setup                         1  3.0    0.000    0.000    0.794    0.795
 qs_env_rebuild_pw_env                2  3.5    0.000    0.000    0.794    0.795
 pw_env_rebuild                       1  5.0    0.000    0.000    0.794    0.795
 pw_grid_setup                        4  6.0    0.000    0.000    0.787    0.788
 pw_grid_setup_internal               4  7.0    0.011    0.011    0.787    0.788
 calculate_xc_2nd_deriv_atom        140  9.0    0.053    0.191    0.173    0.785
 cp_dbcsr_sm_fm_multiply            887  8.6    0.008    0.009    0.766    0.781
 Vh_1c_gg_integrals                 159  9.8    0.014    0.037    0.373    0.672
 pw_grid_sort                         4  8.0    0.467    0.479    0.651    0.667
 create_kernel_env                    1  6.0    0.000    0.000    0.562    0.635
 xc_prep_2nd_deriv                    1  7.0    0.000    0.000    0.562    0.635
 tddfpt_construct_ground_state_       1  6.0    0.000    0.000    0.587    0.592
 dbcsr_multiply_generic            1332 10.3    0.025    0.026    0.561    0.572
 init_scf_run                         1  3.0    0.000    0.000    0.556    0.556
 scf_env_initial_rho_setup            1  4.0    0.000    0.000    0.556    0.556
 mp_irecv_dv                      25485 13.6    0.082    0.519    0.082    0.519
 transfer_rs2pw_10                  161 12.5    0.112    0.122    0.420    0.452
 pw_scale                           308  9.5    0.405    0.448    0.405    0.448
 gaVxcgb_GC                         294 10.0    0.073    0.422    0.073    0.422
 transfer_pw2rs_10                  147 12.0    0.107    0.116    0.348    0.414
 qs_energies_init_hamiltonians        1  3.0    0.000    0.000    0.396    0.396
 dbcsr_complete_redistribute       2794 10.6    0.051    0.062    0.355    0.384
 build_core_hamiltonian_matrix        1  4.0    0.000    0.000    0.383    0.383
 overlap_condnum                      1  5.0    0.000    0.000    0.382    0.383
 grid_integrate_task_list           147 10.0    0.131    0.370    0.131    0.370
 cp_dbcsr_sm_fm_multiply_core       887  9.6    0.001    0.001    0.351    0.361
 rs_gather_matrices                 147 10.0    0.002    0.002    0.232    0.356
 copy_dbcsr_to_fm                   916  9.5    0.006    0.007    0.281    0.345
 fft_wrap_pw1pw2_10                 308 12.3    0.010    0.011    0.213    0.261
 update_ks_atom                     159  8.9    0.011    0.013    0.050    0.258
 cp_fm_diag_elpa                     29  8.0    0.000    0.000    0.257    0.257
 cp_fm_redistribute_end              49  8.6    0.130    0.256    0.130    0.257
 parallel_gemm_fm                  1187  8.4    0.001    0.001    0.211    0.256
 parallel_gemm_fm_cosma            1187  9.4    0.210    0.255    0.210    0.255
 mp_bcast_dm                       1929  9.9    0.040    0.253    0.040    0.253
 powell_optimize                 164472 11.0    0.239    0.245    0.239    0.245
 cp_fm_diag_elpa_base                29  9.0    0.020    0.025    0.068    0.244
 cp_fm_redistribute_start            49  8.6    0.074    0.234    0.076    0.236
 mp_alltoall_i22                   3723 11.6    0.190    0.235    0.190    0.235
 cp_fm_power                          1  6.0    0.000    0.000    0.231    0.231
 copy_fm_to_dbcsr                  1876  9.6    0.004    0.004    0.211    0.229
 make_m2s                          2664 11.3    0.011    0.011    0.216    0.226
 cp_fm_uplo_to_full                  33  9.8    0.048    0.220    0.048    0.220
 multiply_cannon                   1332 11.3    0.062    0.070    0.198    0.218
 calc_screening_functions             1 10.0    0.055    0.056    0.193    0.197
 calculate_rho_atom                 480  9.9    0.123    0.196    0.123    0.196
 make_images                       2664 12.3    0.025    0.025    0.187    0.195
 sort_shells                          4  9.0    0.184    0.190    0.184    0.190
 xc_2nd_deriv_of_r                  560 10.0    0.005    0.023    0.034    0.176
 tddfpt_orthonormalize_psi1_psi       8  6.9    0.006    0.006    0.172    0.172
 calc_pair_dist_radii                 1 10.0    0.061    0.063    0.162    0.167
 cp_dbcsr_plus_fm_fm_t              141  9.0    0.001    0.001    0.165    0.167
 mp_sum_dv                        12198  9.1    0.124    0.146    0.124    0.146
 dbcsr_desymmetrize_deep            917 10.5    0.008    0.009    0.140    0.145
 scf_post_calculation_gpw             1  3.0    0.000    0.000    0.130    0.130
 write_available_results              1  4.0    0.000    0.000    0.130    0.130
 write_mo_free_results                1  5.0    0.019    0.020    0.130    0.130
 tddfpt_orthogonalize_psi1_psi0       8  6.9    0.000    0.000    0.076    0.119
 hybrid_alltoall_any               3581 13.6    0.012    0.013    0.048    0.118
 tddfpt_print_nto_analysis            1  6.0    0.001    0.002    0.116    0.116
 integrate_four_center_main         299 10.9    0.022    0.031    0.100    0.110
 tddfpt_apply_energy_diff             7  8.0    0.000    0.000    0.107    0.107
 tddfpt_compute_residual_vects        6  7.0    0.000    0.000    0.107    0.107
 create_qs_kind_set                   1  2.0    0.000    0.000    0.093    0.094
 read_qs_kind                         3  3.0    0.034    0.051    0.093    0.094
 multiply_cannon_loop              1332 12.3    0.015    0.016    0.084    0.093
 mp_sum_l                          5257 10.5    0.072    0.088    0.072    0.088
 integrate_four_center_bin        22693 11.9    0.078    0.087    0.078    0.087
 make_images_sizes                 2664 13.3    0.002    0.002    0.072    0.083
 pw_grid_assign                       4  8.0    0.079    0.080    0.080    0.082
 mp_alltoall_i44                   2664 14.3    0.070    0.081    0.070    0.081
 dbcsr_finalize                    5875 11.4    0.013    0.015    0.069    0.080
 qs_scf_new_mos                      19  5.0    0.000    0.000    0.076    0.076
 qs_scf_loop_do_ot                   19  6.0    0.000    0.000    0.076    0.076
 cp_fm_to_fm_columns                157  7.1    0.011    0.075    0.011    0.075
 tddfpt_guess_vectors                 1  6.0    0.000    0.000    0.010    0.074
 offload_free_buffer                167 10.4    0.059    0.071    0.059    0.071
 ot_scf_mini                         19  7.0    0.000    0.000    0.068    0.068
 mp_cart_create                    1398 10.9    0.061    0.065    0.062    0.066
 make_images_data                  2664 13.3    0.013    0.015    0.047    0.066
 hirshfeld_integration                1  6.0    0.000    0.001    0.063    0.063
 parser_read_line                 14520  4.0    0.002    0.002    0.059    0.062
 cp_fm_trace_a1b1t1_aa            10080  8.0    0.017    0.018    0.060    0.061
 parser_read_line_low                23  5.0    0.002    0.013    0.056    0.059
 mp_cart_sub                       1834 11.5    0.057    0.059    0.057    0.059
 broadcast_input_information         23  6.0    0.004    0.004    0.055    0.059
 calculate_rho_atom_coeff           161  9.5    0.018    0.020    0.058    0.058
 calculate_vxc_atom                  19  8.0    0.007    0.015    0.056    0.056
 pw_grid_remap                        4  8.0    0.019    0.019    0.038    0.056
 dbcsr_create_new                 19252 11.6    0.037    0.039    0.050    0.052
 calculate_hirshfeld_normalizat       1  6.0    0.000    0.001    0.045    0.048
 dbcsr_merge_all                   4905 12.4    0.026    0.030    0.040    0.047
 -------------------------------------------------------------------------------

 The number of warnings for this run is : 0
 
 -------------------------------------------------------------------------------
  **** **** ******  **  PROGRAM ENDED AT                 2025-07-01 16:58:06.547
 ***** ** ***  *** **   PROGRAM RAN ON                                  n2cn1178
 **    ****   ******    PROGRAM RAN BY                                  metdyn02
 ***** **    ** ** **   PROGRAM PROCESS ID                               1389641
  **** **  *******  **  PROGRAM STOPPED IN /scratch/hpc-prf-metdyn/metdyn02_Remi
                                           /10_MOL/05_MOL/W4-11+ALK/c2h3f/mini-S
                                           ZV/TDDFT/RILIM
