 DBCSR| CPU Multiplication driver                                           BLAS (U)
 DBCSR| Multrec recursion limit                                              512 (U)
 DBCSR| Multiplication stack size                                           1000 (D)
 DBCSR| Maximum elements for images                                    UNLIMITED (U)
 DBCSR| Multiplicative factor virtual images                                   1 (U)
 DBCSR| Use multiplication densification                                       T (D)
 DBCSR| Multiplication size stacks                                             3 (U)
 DBCSR| Use memory pool for CPU allocation                                     F (U)
 DBCSR| Number of 3D layers                                               SINGLE (U)
 DBCSR| Use MPI memory allocation                                              F (U)
 DBCSR| Use RMA algorithm                                                      F (U)
 DBCSR| Use Communication thread                                               T (U)
 DBCSR| Communication thread load                                             75 (D)
 DBCSR| MPI: My process id                                                     0
 DBCSR| MPI: Number of processes                                             216
 DBCSR| OMP: Current number of threads                                         4
 DBCSR| OMP: Max number of threads                                             4
 DBCSR| Split modifier for TAS multiplication algorithm                  1.0E+00 (U)


  **** **** ******  **  PROGRAM STARTED AT               2025-04-02 17:38:24.204
 ***** ** ***  *** **   PROGRAM STARTED ON                          i03r06c01s07
 **    ****   ******    PROGRAM STARTED BY                               di38fab
 ***** **    ** ** **   PROGRAM PROCESS ID                               2256679
  **** **  *******  **  PROGRAM STARTED IN /hppfs/scratch/04/di38fab/07_MOL_non_
                                           aug/05_MOL_non_aug/05_MOL/aUKBqsEOTmq
                                           69kFe5R_nOg/5k_set_final_qzvp/QARVOV/
                                           cc-pVTZ/TDDFT

 CP2K| version string:                 CP2K version 2025.1 (Development Version)
 CP2K| source code revision number:                                  git:d2e611a
 CP2K| cp2kflags: omp libint fftw3 libxc parallel scalapack max_contr=4         
 CP2K| is freely available from                            https://www.cp2k.org/
 CP2K| Program compiled at                       Thu 06 Mar 2025 05:09:20 PM CET
 CP2K| Program compiled on                                               login02
 CP2K| Program compiled for                                        Supermuc-foss
 CP2K| Data directory path                  /hppfs/work/pn36zo/di38fab/cp2k/data
 CP2K| Input file name                                                    GW.inp

 GLOBAL| Force Environment number                                              1
 GLOBAL| Basis set file name            /hppfs/scratch/04/di38fab/04_TMD/BASIS_A
 GLOBAL| Potential file name            /hppfs/work/pn36zo/di38fab/cp2k/data/ALL
 GLOBAL| MM Potential file name                                     MM_POTENTIAL
 GLOBAL| Coordinate file name                                      __STD_INPUT__
 GLOBAL| Method name                                                        CP2K
 GLOBAL| Project name                                                       MoS2
 GLOBAL| Run type                                                         ENERGY
 GLOBAL| FFT library                                                       FFTW3
 GLOBAL| Diagonalization library                                       ScaLAPACK
 GLOBAL| DGEMM library                                                      BLAS
 GLOBAL| Orthonormality check for eigenvectors                          DISABLED
 GLOBAL| Matrix multiplication library                                 ScaLAPACK
 GLOBAL| All-to-all communication in single precision                          F
 GLOBAL| FFTs using library dependent lengths                                  F
 GLOBAL| Grid backend                                                       AUTO
 GLOBAL| Global print level                                               MEDIUM
 GLOBAL| MPI I/O enabled                                                       T
 GLOBAL| Total number of message passing processes                           216
 GLOBAL| Number of threads for this process                                    4
 GLOBAL| This output is from process                                           0
 GLOBAL| OpenMP stack size per thread (OMP_STACKSIZE)                    default
 GLOBAL| CPU model name             Intel(R) Xeon(R) Platinum 8174 CPU @ 3.10GHz

 MEMORY| system memory details [Kb]
 MEMORY|                        rank 0           min           max       average
 MEMORY| MemTotal             98436644      98436644      98436708      98436666
 MEMORY| MemFree              85467676      85131028      85474096      85375704
 MEMORY| Buffers                     0             0             0             0
 MEMORY| Cached                2362240       2360236       2371720       2362194
 MEMORY| Slab                   957248        941104        980320        961620
 MEMORY| SReclaimable           216772        205684        227444        217802
 MEMORY| MemLikelyFree        88046688      87713548      88050840      87955701


 *** Fundamental physical constants (SI units) ***

 *** Literature: B. J. Mohr and B. N. Taylor,
 ***             CODATA recommended values of the fundamental physical
 ***             constants: 2006, Web Version 5.1
 ***             http://physics.nist.gov/constants

 Speed of light in vacuum [m/s]                             2.99792458000000E+08
 Magnetic constant or permeability of vacuum [N/A**2]       1.25663706143592E-06
 Electric constant or permittivity of vacuum [F/m]          8.85418781762039E-12
 Planck constant (h) [J*s]                                  6.62606896000000E-34
 Planck constant (h-bar) [J*s]                              1.05457162825177E-34
 Elementary charge [C]                                      1.60217648700000E-19
 Electron mass [kg]                                         9.10938215000000E-31
 Electron g factor [ ]                                     -2.00231930436220E+00
 Proton mass [kg]                                           1.67262163700000E-27
 Fine-structure constant                                    7.29735253760000E-03
 Rydberg constant [1/m]                                     1.09737315685270E+07
 Avogadro constant [1/mol]                                  6.02214179000000E+23
 Boltzmann constant [J/K]                                   1.38065040000000E-23
 Atomic mass unit [kg]                                      1.66053878200000E-27
 Bohr radius [m]                                            5.29177208590000E-11

 *** Conversion factors ***

 [u] -> [a.u.]                                              1.82288848426455E+03
 [Angstrom] -> [Bohr] = [a.u.]                              1.88972613288564E+00
 [a.u.] = [Bohr] -> [Angstrom]                              5.29177208590000E-01
 [a.u.] -> [s]                                              2.41888432650478E-17
 [a.u.] -> [fs]                                             2.41888432650478E-02
 [a.u.] -> [J]                                              4.35974393937059E-18
 [a.u.] -> [N]                                              8.23872205491840E-08
 [a.u.] -> [K]                                              3.15774647902944E+05
 [a.u.] -> [kJ/mol]                                         2.62549961709828E+03
 [a.u.] -> [kcal/mol]                                       6.27509468713739E+02
 [a.u.] -> [Pa]                                             2.94210107994716E+13
 [a.u.] -> [bar]                                            2.94210107994716E+08
 [a.u.] -> [atm]                                            2.90362800883016E+08
 [a.u.] -> [eV]                                             2.72113838565563E+01
 [a.u.] -> [Hz]                                             6.57968392072181E+15
 [a.u.] -> [1/cm] (wave numbers)                            2.19474631370540E+05
 [a.u./Bohr**2] -> [1/cm]                                   5.14048714338585E+03
 

 CELL_TOP| Volume [angstrom^3]:                                     27000.000000
 CELL_TOP| Vector a [angstrom    30.000     0.000     0.000   |a| =    30.000000
 CELL_TOP| Vector b [angstrom     0.000    30.000     0.000   |b| =    30.000000
 CELL_TOP| Vector c [angstrom     0.000     0.000    30.000   |c| =    30.000000
 CELL_TOP| Angle (b,c), alpha [degree]:                                90.000000
 CELL_TOP| Angle (a,c), beta  [degree]:                                90.000000
 CELL_TOP| Angle (a,b), gamma [degree]:                                90.000000
 CELL_TOP| Numerically orthorhombic:                                         YES
 CELL_TOP| Periodicity                                                      NONE

 GENERATE|  Preliminary Number of Bonds generated:                             0
 GENERATE|  Achieved consistency in connectivity generation.

 CELL| Volume [angstrom^3]:                                         27000.000000
 CELL| Vector a [angstrom]:      30.000     0.000     0.000   |a| =    30.000000
 CELL| Vector b [angstrom]:       0.000    30.000     0.000   |b| =    30.000000
 CELL| Vector c [angstrom]:       0.000     0.000    30.000   |c| =    30.000000
 CELL| Angle (b,c), alpha [degree]:                                    90.000000
 CELL| Angle (a,c), beta  [degree]:                                    90.000000
 CELL| Angle (a,b), gamma [degree]:                                    90.000000
 CELL| Numerically orthorhombic:                                             YES
 CELL| Periodicity                                                          NONE

 CELL_REF| Volume [angstrom^3]:                                     27000.000000
 CELL_REF| Vector a [angstrom    30.000     0.000     0.000   |a| =    30.000000
 CELL_REF| Vector b [angstrom     0.000    30.000     0.000   |b| =    30.000000
 CELL_REF| Vector c [angstrom     0.000     0.000    30.000   |c| =    30.000000
 CELL_REF| Angle (b,c), alpha [degree]:                                90.000000
 CELL_REF| Angle (a,c), beta  [degree]:                                90.000000
 CELL_REF| Angle (a,b), gamma [degree]:                                90.000000
 CELL_REF| Numerically orthorhombic:                                         YES
 CELL_REF| Periodicity                                                      NONE

 *******************************************************************************
 *******************************************************************************
 **                                                                           **
 **     #####                         ##              ##                      **
 **    ##   ##            ##          ##              ##                      **
 **   ##     ##                       ##            ######                    **
 **   ##     ##  ##   ##  ##   #####  ##  ##   ####   ##    #####    #####    **
 **   ##     ##  ##   ##  ##  ##      ## ##   ##      ##   ##   ##  ##   ##   **
 **   ##  ## ##  ##   ##  ##  ##      ####     ###    ##   ######   ######    **
 **    ##  ###   ##   ##  ##  ##      ## ##      ##   ##   ##       ##        **
 **     #######   #####   ##   #####  ##  ##  ####    ##    #####   ##        **
 **           ##                                                    ##        **
 **                                                                           **
 **                                                ... make the atoms dance   **
 **                                                                           **
 **            Copyright (C) by CP2K developers group (2000-2025)             **
 **                      J. Chem. Phys. 152, 194103 (2020)                    **
 **                                                                           **
 *******************************************************************************

 DFT| Spin restricted Kohn-Sham (RKS) calculation                            RKS
 DFT| Multiplicity                                                             1
 DFT| Number of spin states                                                    1
 DFT| Charge                                                                   0
 DFT| Self-interaction correction (SIC)                                       NO
 DFT| Cutoffs: density                                              1.000000E-10
 DFT|          gradient                                             1.000000E-10
 DFT|          tau                                                  1.000000E-10
 DFT|          cutoff_smoothing_range                               0.000000E+00
 DFT| XC density smoothing                                                  NONE
 DFT| XC derivatives                                                          PW

 FUNCTIONAL| PBE:
 FUNCTIONAL| J.P.Perdew, K.Burke, M.Ernzerhof, Phys. Rev. Letter, vol. 77, n 18,
 FUNCTIONAL|  pp. 3865-3868, (1996)sx=0.750sc=1.000{spin unpolarized}           


 QS| Method:                                                                GAPW
 QS| Density plane wave grid type                        NON-SPHERICAL FULLSPACE
 QS| Number of grid levels:                                                    4
 QS| Density cutoff [a.u.]:                                                250.0
 QS| Multi grid cutoff [a.u.]: 1) grid level                               250.0
 QS|                           2) grid level                                83.3
 QS|                           3) grid level                                27.8
 QS|                           4) grid level                                 9.3
 QS| Grid level progression factor:                                          3.0
 QS| Relative density cutoff [a.u.]:                                        50.0
 QS| Interaction thresholds: eps_pgf_orb:                                1.0E-12
 QS|                         eps_filter_matrix:                          0.0E+00
 QS|                         eps_core_charge:                            1.0E-14
 QS|                         eps_rho_gspace:                             1.0E-12
 QS|                         eps_rho_rspace:                             1.0E-12
 QS|                         eps_gvg_rspace:                             1.0E-06
 QS|                         eps_ppl:                                    1.0E-02
 QS|                         eps_ppnl:                                   1.0E-08
 QS| GAPW|      One center basis from orbital basis primitives
 QS| GAPW|                   eps_fit:                                    1.0E-04
 QS| GAPW|                   eps_iso:                                    1.0E-12
 QS| GAPW|                   eps_svd:                                    1.0E-08
 QS| GAPW|                   eps_cpc:                                    1.0E-12
 QS| GAPW|   atom-r-grid: quadrature:                                     GC_LOG
 QS| GAPW|      atom-s-grid:  max l :                                          6
 QS| GAPW|      max_l_rho0 :                                                   2


 ATOMIC KIND INFORMATION

  1. Atomic kind: H                                     Number of atoms:       3

     Orbital Basis Set                                                   cc-pVTZ

       Number of orbital shell sets:                                           3
       Number of orbital shells:                                               6
       Number of primitive Cartesian functions:                                8
       Number of Cartesian basis functions:                                   15
       Number of spherical basis functions:                                   14
       Norm type:                                                              2

       Normalised Cartesian orbitals:

                        Set   Shell   Orbital            Exponent    Coefficient

                          1       1    1s               33.870000       0.000000
                                                         5.095000       0.000000
                                                         1.159000       0.000000
                                                         0.325800       0.307343
                                                         0.102700       0.000000

                          1       2    2s               33.870000       0.060718
                                                         5.095000       0.109507
                                                         1.159000       0.161468
                                                         0.325800       0.154871
                                                         0.102700       0.049575

                          1       3    3s               33.870000       0.000000
                                                         5.095000       0.000000
                                                         1.159000       0.000000
                                                         0.325800       0.000000
                                                         0.102700       0.129297

                          2       1    1px               1.407000       2.184277
                                                         0.388000       0.000000
                          2       1    1py               1.407000       2.184277
                                                         0.388000       0.000000
                          2       1    1pz               1.407000       2.184277
                                                         0.388000       0.000000

                          2       2    2px               1.407000       0.000000
                                                         0.388000       0.436495
                          2       2    2py               1.407000       0.000000
                                                         0.388000       0.436495
                          2       2    2pz               1.407000       0.000000
                                                         0.388000       0.436495

                          3       1    1dx2              1.057000       1.813597
                          3       1    1dxy              1.057000       3.141241
                          3       1    1dxz              1.057000       3.141241
                          3       1    1dy2              1.057000       1.813597
                          3       1    1dyz              1.057000       3.141241
                          3       1    1dz2              1.057000       1.813597

     RI Auxiliary Basis Set                                        cc-pVTZ-RIFIT

       Number of orbital shell sets:                                          10
       Number of orbital shells:                                              10
       Number of primitive Cartesian functions:                               10
       Number of Cartesian basis functions:                                   35
       Number of spherical basis functions:                                   30
       Norm type:                                                              2

       Normalised Cartesian orbitals:

                        Set   Shell   Orbital            Exponent    Coefficient

                          1       1    1s                0.289740       0.281460

                          2       1    1s                0.526184       0.440315

                          3       1    1px               0.603822       0.758711
                          3       1    1py               0.603822       0.758711
                          3       1    1pz               0.603822       0.758711

                          4       1    1dx2              1.143973       2.082748
                          4       1    1dxy              1.143973       3.607426
                          4       1    1dxz              1.143973       3.607426
                          4       1    1dy2              1.143973       2.082748
                          4       1    1dyz              1.143973       3.607426
                          4       1    1dz2              1.143973       2.082748

                          5       1    1px               1.180408       1.753802
                          5       1    1py               1.180408       1.753802
                          5       1    1pz               1.180408       1.753802

                          6       1    1fx3              1.806306       5.568458
                          6       1    1fx2y             1.806306      12.451451
                          6       1    1fx2z             1.806306      12.451451
                          6       1    1fxy2             1.806306      12.451451
                          6       1    1fxyz             1.806306      21.566546
                          6       1    1fxz2             1.806306      12.451451
                          6       1    1fy3              1.806306       5.568458
                          6       1    1fy2z             1.806306      12.451451
                          6       1    1fyz2             1.806306      12.451451
                          6       1    1fz3              1.806306       5.568458

                          7       1    1dx2              1.809637       4.647235
                          7       1    1dxy              1.809637       8.049248
                          7       1    1dxz              1.809637       8.049248
                          7       1    1dy2              1.809637       4.647235
                          7       1    1dyz              1.809637       8.049248
                          7       1    1dz2              1.809637       4.647235

                          8       1    1s                1.873089       1.141114

                          9       1    1px               2.372549       4.197195
                          9       1    1py               2.372549       4.197195
                          9       1    1pz               2.372549       4.197195

                         10       1    1s                8.512828       3.551939

       Atomic covalent radius [Angstrom]:                                  0.320

       Atomic van der Waals radius [Angstrom]:                             1.090

     The atoms of this atomic kind are PAW atoms (GAPW):
       Hard Gaussian function radius:                                      1.200
       Rho0 radius:                                                        1.200
       Maximum GTO radius used for PAW projector construction:            24.566

     GAPW Soft Basis Set                                            cc-pVTZ_soft

       Number of orbital shell sets:                                           3
       Number of orbital shells:                                               6
       Number of primitive Cartesian functions:                                7
       Number of Cartesian basis functions:                                   15
       Number of spherical basis functions:                                   14
       Norm type:                                                              2

       Normalised Cartesian orbitals:

                        Set   Shell   Orbital            Exponent    Coefficient

                          1       1    1s                5.095000       0.000000
                                                         1.159000       0.000000
                                                         0.325800       0.307343
                                                         0.102700       0.000000

                          1       2    2s                5.095000       0.109507
                                                         1.159000       0.161468
                                                         0.325800       0.154871
                                                         0.102700       0.049575

                          1       3    3s                5.095000       0.000000
                                                         1.159000       0.000000
                                                         0.325800       0.000000
                                                         0.102700       0.129297

                          2       1    1px               1.407000       2.184277
                                                         0.388000       0.000000
                          2       1    1py               1.407000       2.184277
                                                         0.388000       0.000000
                          2       1    1pz               1.407000       2.184277
                                                         0.388000       0.000000

                          2       2    2px               1.407000       0.000000
                                                         0.388000       0.436495
                          2       2    2py               1.407000       0.000000
                                                         0.388000       0.436495
                          2       2    2pz               1.407000       0.000000
                                                         0.388000       0.436495

                          3       1    1dx2              1.057000       1.813597
                          3       1    1dxy              1.057000       3.141241
                          3       1    1dxz              1.057000       3.141241
                          3       1    1dy2              1.057000       1.813597
                          3       1    1dyz              1.057000       3.141241
                          3       1    1dz2              1.057000       1.813597

     AE Potential information for                                            ALL

       Description:                                       All-electron potential
                                          Krack, Parrinello, PCCP 2, 2105 (2000)

       Gaussian exponent of the core charge distribution:              12.500000
       Electronic configuration (s p d ...):                           1   0   0

  2. Atomic kind: C                                     Number of atoms:       4

     Orbital Basis Set                                                   cc-pVTZ

       Number of orbital shell sets:                                           4
       Number of orbital shells:                                              10
       Number of primitive Cartesian functions:                               18
       Number of Cartesian basis functions:                                   35
       Number of spherical basis functions:                                   30
       Norm type:                                                              2

       Normalised Cartesian orbitals:

                        Set   Shell   Orbital            Exponent    Coefficient

                          1       1    1px              18.710000       0.000000
                                                         4.133000       0.000000
                                                         1.200000       0.000000
                                                         0.382700       0.429055
                                                         0.120900       0.000000
                          1       1    1py              18.710000       0.000000
                                                         4.133000       0.000000
                                                         1.200000       0.000000
                                                         0.382700       0.429055
                                                         0.120900       0.000000
                          1       1    1pz              18.710000       0.000000
                                                         4.133000       0.000000
                                                         1.200000       0.000000
                                                         0.382700       0.429055
                                                         0.120900       0.000000

                          1       2    2px              18.710000       0.778253
                                                         4.133000       0.729662
                                                         1.200000       0.519563
                                                         0.382700       0.214960
                                                         0.120900       0.034896
                          1       2    2py              18.710000       0.778253
                                                         4.133000       0.729662
                                                         1.200000       0.519563
                                                         0.382700       0.214960
                                                         0.120900       0.034896
                          1       2    2pz              18.710000       0.778253
                                                         4.133000       0.729662
                                                         1.200000       0.519563
                                                         0.382700       0.214960
                                                         0.120900       0.034896

                          1       3    3px              18.710000       0.000000
                                                         4.133000       0.000000
                                                         1.200000       0.000000
                                                         0.382700       0.000000
                                                         0.120900       0.101619
                          1       3    3py              18.710000       0.000000
                                                         4.133000       0.000000
                                                         1.200000       0.000000
                                                         0.382700       0.000000
                                                         0.120900       0.101619
                          1       3    3pz              18.710000       0.000000
                                                         4.133000       0.000000
                                                         1.200000       0.000000
                                                         0.382700       0.000000
                                                         0.120900       0.101619

                          2       1    1s             8236.000000       0.327184
                                                      1235.000000       0.609945
                                                       280.800000       1.030914
                                                        79.270000       1.549802
                                                        25.590000       1.904111
                                                         8.997000       1.608326
                                                         3.319000       0.606601
                                                         0.905900       0.026060
                                                         0.364300      -0.003002
                                                         0.128500       0.000365

                          2       2    2s             8236.000000       0.000000
                                                      1235.000000       0.000000
                                                       280.800000       0.000000
                                                        79.270000       0.000000
                                                        25.590000       0.000000
                                                         8.997000       0.000000
                                                         3.319000       0.000000
                                                         0.905900       0.661790
                                                         0.364300       0.000000
                                                         0.128500       0.000000

                          2       3    3s             8236.000000      -0.069627
                                                      1235.000000      -0.130363
                                                       280.800000      -0.221954
                                                        79.270000      -0.343330
                                                        25.590000      -0.452153
                                                         8.997000      -0.469816
                                                         3.319000      -0.298547
                                                         0.905900       0.092903
                                                         0.364300       0.200079
                                                         0.128500       0.060480

                          2       4    4s             8236.000000       0.000000
                                                      1235.000000       0.000000
                                                       280.800000       0.000000
                                                        79.270000       0.000000
                                                        25.590000       0.000000
                                                         8.997000       0.000000
                                                         3.319000       0.000000
                                                         0.905900       0.000000
                                                         0.364300       0.000000
                                                         0.128500       0.152963

                          3       1    1dx2              1.097000       1.935401
                                                         0.318000       0.000000
                          3       1    1dxy              1.097000       3.352214
                                                         0.318000       0.000000
                          3       1    1dxz              1.097000       3.352214
                                                         0.318000       0.000000
                          3       1    1dy2              1.097000       1.935401
                                                         0.318000       0.000000
                          3       1    1dyz              1.097000       3.352214
                                                         0.318000       0.000000
                          3       1    1dz2              1.097000       1.935401
                                                         0.318000       0.000000

                          3       2    2dx2              1.097000       0.000000
                                                         0.318000       0.221644
                          3       2    2dxy              1.097000       0.000000
                                                         0.318000       0.383899
                          3       2    2dxz              1.097000       0.000000
                                                         0.318000       0.383899
                          3       2    2dy2              1.097000       0.000000
                                                         0.318000       0.221644
                          3       2    2dyz              1.097000       0.000000
                                                         0.318000       0.383899
                          3       2    2dz2              1.097000       0.000000
                                                         0.318000       0.221644

                          4       1    1fx3              0.761000       0.796288
                          4       1    1fx2y             0.761000       1.780553
                          4       1    1fx2z             0.761000       1.780553
                          4       1    1fxy2             0.761000       1.780553
                          4       1    1fxyz             0.761000       3.084008
                          4       1    1fxz2             0.761000       1.780553
                          4       1    1fy3              0.761000       0.796288
                          4       1    1fy2z             0.761000       1.780553
                          4       1    1fyz2             0.761000       1.780553
                          4       1    1fz3              0.761000       0.796288

     RI Auxiliary Basis Set                                        cc-pVTZ-RIFIT

       Number of orbital shell sets:                                          23
       Number of orbital shells:                                              23
       Number of primitive Cartesian functions:                               23
       Number of Cartesian basis functions:                                  101
       Number of spherical basis functions:                                   81
       Norm type:                                                              2

       Normalised Cartesian orbitals:

                        Set   Shell   Orbital            Exponent    Coefficient

                          1       1    1s                0.215823       0.225675

                          2       1    1px               0.281527       0.292307
                          2       1    1py               0.281527       0.292307
                          2       1    1pz               0.281527       0.292307

                          3       1    1dx2              0.290556       0.189261
                          3       1    1dxy              0.290556       0.327810
                          3       1    1dxz              0.290556       0.327810
                          3       1    1dy2              0.290556       0.189261
                          3       1    1dyz              0.290556       0.327810
                          3       1    1dz2              0.290556       0.189261

                          4       1    1s                0.502749       0.425524

                          5       1    1fx3              0.541575       0.370413
                          5       1    1fx2y             0.541575       0.828268
                          5       1    1fx2z             0.541575       0.828268
                          5       1    1fxy2             0.541575       0.828268
                          5       1    1fxyz             0.541575       1.434603
                          5       1    1fxz2             0.541575       0.828268
                          5       1    1fy3              0.541575       0.370413
                          5       1    1fy2z             0.541575       0.828268
                          5       1    1fyz2             0.541575       0.828268
                          5       1    1fz3              0.541575       0.370413

                          6       1    1px               0.549413       0.674238
                          6       1    1py               0.549413       0.674238
                          6       1    1pz               0.549413       0.674238

                          7       1    1dx2              0.573708       0.622471
                          7       1    1dxy              0.573708       1.078151
                          7       1    1dxz              0.573708       1.078151
                          7       1    1dy2              0.573708       0.622471
                          7       1    1dyz              0.573708       1.078151
                          7       1    1dz2              0.573708       0.622471

                          8       1    1s                0.912450       0.665376

                          9       1    1px               1.037564       1.492652
                          9       1    1py               1.037564       1.492652
                          9       1    1pz               1.037564       1.492652

                         10       1    1fx3              1.196890       2.205852
                         10       1    1fx2y             1.196890       4.932435
                         10       1    1fx2z             1.196890       4.932435
                         10       1    1fxy2             1.196890       4.932435
                         10       1    1fxyz             1.196890       8.543228
                         10       1    1fxz2             1.196890       4.932435
                         10       1    1fy3              1.196890       2.205852
                         10       1    1fy2z             1.196890       4.932435
                         10       1    1fyz2             1.196890       4.932435
                         10       1    1fz3              1.196890       2.205852

                         11       1    1gx4              1.216610       1.908103
                         11       1    1gx3y             1.216610       5.048367
                         11       1    1gx3z             1.216610       5.048367
                         11       1    1gx2y2            1.216610       6.517414
                         11       1    1gx2yz            1.216610      11.288491
                         11       1    1gx2z2            1.216610       6.517414
                         11       1    1gxy3             1.216610       5.048367
                         11       1    1gxy2z            1.216610      11.288491
                         11       1    1gxyz2            1.216610      11.288491
                         11       1    1gxz3             1.216610       5.048367
                         11       1    1gy4              1.216610       1.908103
                         11       1    1gy3z             1.216610       5.048367
                         11       1    1gy2z2            1.216610       6.517414
                         11       1    1gyz3             1.216610       5.048367
                         11       1    1gz4              1.216610       1.908103

                         12       1    1dx2              1.467774       3.221535
                         12       1    1dxy              1.467774       5.579863
                         12       1    1dxz              1.467774       5.579863
                         12       1    1dy2              1.467774       3.221535
                         12       1    1dyz              1.467774       5.579863
                         12       1    1dz2              1.467774       3.221535

                         13       1    1s                1.562255       0.995919

                         14       1    1px               2.129088       3.665914
                         14       1    1py               2.129088       3.665914
                         14       1    1pz               2.129088       3.665914

                         15       1    1fx3              2.275620       9.363300
                         15       1    1fx2y             2.275620      20.936975
                         15       1    1fx2z             2.275620      20.936975
                         15       1    1fxy2             2.275620      20.936975
                         15       1    1fxyz             2.275620      36.263904
                         15       1    1fxz2             2.275620      20.936975
                         15       1    1fy3              2.275620       9.363300
                         15       1    1fy2z             2.275620      20.936975
                         15       1    1fyz2             2.275620      20.936975
                         15       1    1fz3              2.275620       9.363300

                         16       1    1dx2              3.035148      11.487463
                         16       1    1dxy              3.035148      19.896869
                         16       1    1dxz              3.035148      19.896869
                         16       1    1dy2              3.035148      11.487463
                         16       1    1dyz              3.035148      19.896869
                         16       1    1dz2              3.035148      11.487463

                         17       1    1px               6.476451      14.726905
                         17       1    1py               6.476451      14.726905
                         17       1    1pz               6.476451      14.726905

                         18       1    1s                6.862093       3.021708

                         19       1    1dx2              9.718981      88.053322
                         19       1    1dxy              9.718981     152.512828
                         19       1    1dxz              9.718981     152.512828
                         19       1    1dy2              9.718981      88.053322
                         19       1    1dyz              9.718981     152.512828
                         19       1    1dz2              9.718981      88.053322

                         20       1    1s               22.116651       7.268581

                         21       1    1px              24.231865      76.634379
                         21       1    1py              24.231865      76.634379
                         21       1    1pz              24.231865      76.634379

                         22       1    1s               60.230247      15.408880

                         23       1    1s              280.556612      48.856851

       Atomic covalent radius [Angstrom]:                                  0.770

       Atomic van der Waals radius [Angstrom]:                             1.700

     The atoms of this atomic kind are PAW atoms (GAPW):
       Hard Gaussian function radius:                                      1.512
       Rho0 radius:                                                        1.512
       Maximum GTO radius used for PAW projector construction:            24.566

     GAPW Soft Basis Set                                            cc-pVTZ_soft

       Number of orbital shell sets:                                           4
       Number of orbital shells:                                              10
       Number of primitive Cartesian functions:                               11
       Number of Cartesian basis functions:                                   35
       Number of spherical basis functions:                                   30
       Norm type:                                                              2

       Normalised Cartesian orbitals:

                        Set   Shell   Orbital            Exponent    Coefficient

                          1       1    1px               4.133000       0.000000
                                                         1.200000       0.000000
                                                         0.382700       0.429055
                                                         0.120900       0.000000
                          1       1    1py               4.133000       0.000000
                                                         1.200000       0.000000
                                                         0.382700       0.429055
                                                         0.120900       0.000000
                          1       1    1pz               4.133000       0.000000
                                                         1.200000       0.000000
                                                         0.382700       0.429055
                                                         0.120900       0.000000

                          1       2    2px               4.133000       0.729662
                                                         1.200000       0.519563
                                                         0.382700       0.214960
                                                         0.120900       0.034896
                          1       2    2py               4.133000       0.729662
                                                         1.200000       0.519563
                                                         0.382700       0.214960
                                                         0.120900       0.034896
                          1       2    2pz               4.133000       0.729662
                                                         1.200000       0.519563
                                                         0.382700       0.214960
                                                         0.120900       0.034896

                          1       3    3px               4.133000       0.000000
                                                         1.200000       0.000000
                                                         0.382700       0.000000
                                                         0.120900       0.101619
                          1       3    3py               4.133000       0.000000
                                                         1.200000       0.000000
                                                         0.382700       0.000000
                                                         0.120900       0.101619
                          1       3    3pz               4.133000       0.000000
                                                         1.200000       0.000000
                                                         0.382700       0.000000
                                                         0.120900       0.101619

                          2       1    1s                3.319000       0.606601
                                                         0.905900       0.026060
                                                         0.364300      -0.003002
                                                         0.128500       0.000365

                          2       2    2s                3.319000       0.000000
                                                         0.905900       0.661790
                                                         0.364300       0.000000
                                                         0.128500       0.000000

                          2       3    3s                3.319000      -0.298547
                                                         0.905900       0.092903
                                                         0.364300       0.200079
                                                         0.128500       0.060480

                          2       4    4s                3.319000       0.000000
                                                         0.905900       0.000000
                                                         0.364300       0.000000
                                                         0.128500       0.152963

                          3       1    1dx2              1.097000       1.935401
                                                         0.318000       0.000000
                          3       1    1dxy              1.097000       3.352214
                                                         0.318000       0.000000
                          3       1    1dxz              1.097000       3.352214
                                                         0.318000       0.000000
                          3       1    1dy2              1.097000       1.935401
                                                         0.318000       0.000000
                          3       1    1dyz              1.097000       3.352214
                                                         0.318000       0.000000
                          3       1    1dz2              1.097000       1.935401
                                                         0.318000       0.000000

                          3       2    2dx2              1.097000       0.000000
                                                         0.318000       0.221644
                          3       2    2dxy              1.097000       0.000000
                                                         0.318000       0.383899
                          3       2    2dxz              1.097000       0.000000
                                                         0.318000       0.383899
                          3       2    2dy2              1.097000       0.000000
                                                         0.318000       0.221644
                          3       2    2dyz              1.097000       0.000000
                                                         0.318000       0.383899
                          3       2    2dz2              1.097000       0.000000
                                                         0.318000       0.221644

                          4       1    1fx3              0.761000       0.796288
                          4       1    1fx2y             0.761000       1.780553
                          4       1    1fx2z             0.761000       1.780553
                          4       1    1fxy2             0.761000       1.780553
                          4       1    1fxyz             0.761000       3.084008
                          4       1    1fxz2             0.761000       1.780553
                          4       1    1fy3              0.761000       0.796288
                          4       1    1fy2z             0.761000       1.780553
                          4       1    1fyz2             0.761000       1.780553
                          4       1    1fz3              0.761000       0.796288

     AE Potential information for                                            ALL

       Description:                                       All-electron potential
                                          Krack, Parrinello, PCCP 2, 2105 (2000)

       Gaussian exponent of the core charge distribution:               4.109048
       Electronic configuration (s p d ...):                           4   2   0

  3. Atomic kind: N                                     Number of atoms:       1

     Orbital Basis Set                                                   cc-pVTZ

       Number of orbital shell sets:                                           4
       Number of orbital shells:                                              10
       Number of primitive Cartesian functions:                               18
       Number of Cartesian basis functions:                                   35
       Number of spherical basis functions:                                   30
       Norm type:                                                              2

       Normalised Cartesian orbitals:

                        Set   Shell   Orbital            Exponent    Coefficient

                          1       1    1px              26.630000       0.000000
                                                         5.948000       0.000000
                                                         1.742000       0.000000
                                                         0.555000       0.682820
                                                         0.172500       0.000000
                          1       1    1py              26.630000       0.000000
                                                         5.948000       0.000000
                                                         1.742000       0.000000
                                                         0.555000       0.682820
                                                         0.172500       0.000000
                          1       1    1pz              26.630000       0.000000
                                                         5.948000       0.000000
                                                         1.742000       0.000000
                                                         0.555000       0.682820
                                                         0.172500       0.000000

                          1       2    2px              26.630000       1.264982
                                                         5.948000       1.215000
                                                         1.742000       0.852042
                                                         0.555000       0.340377
                                                         0.172500       0.053406
                          1       2    2py              26.630000       1.264982
                                                         5.948000       1.215000
                                                         1.742000       0.852042
                                                         0.555000       0.340377
                                                         0.172500       0.053406
                          1       2    2pz              26.630000       1.264982
                                                         5.948000       1.215000
                                                         1.742000       0.852042
                                                         0.555000       0.340377
                                                         0.172500       0.053406

                          1       3    3px              26.630000       0.000000
                                                         5.948000       0.000000
                                                         1.742000       0.000000
                                                         0.555000       0.000000
                                                         0.172500       0.158462
                          1       3    3py              26.630000       0.000000
                                                         5.948000       0.000000
                                                         1.742000       0.000000
                                                         0.555000       0.000000
                                                         0.172500       0.158462
                          1       3    3pz              26.630000       0.000000
                                                         5.948000       0.000000
                                                         1.742000       0.000000
                                                         0.555000       0.000000
                                                         0.172500       0.158462

                          2       1    1s            11420.000000       0.411776
                                                      1712.000000       0.767284
                                                       389.300000       1.297670
                                                       110.000000       1.954219
                                                        35.570000       2.419449
                                                        12.540000       2.058842
                                                         4.644000       0.783427
                                                         1.293000       0.035658
                                                         0.511800      -0.003669
                                                         0.178700       0.000467

                          2       2    2s            11420.000000       0.000000
                                                      1712.000000       0.000000
                                                       389.300000       0.000000
                                                       110.000000       0.000000
                                                        35.570000       0.000000
                                                        12.540000       0.000000
                                                         4.644000       0.000000
                                                         1.293000       0.864190
                                                         0.511800       0.000000
                                                         0.178700       0.000000

                          2       3    3s            11420.000000      -0.090544
                                                      1712.000000      -0.169770
                                                       389.300000      -0.288829
                                                       110.000000      -0.448521
                                                        35.570000      -0.595214
                                                        12.540000      -0.627274
                                                         4.644000      -0.388950
                                                         1.293000       0.131196
                                                         0.511800       0.258729
                                                         0.178700       0.075898

                          2       4    4s            11420.000000       0.000000
                                                      1712.000000       0.000000
                                                       389.300000       0.000000
                                                       110.000000       0.000000
                                                        35.570000       0.000000
                                                        12.540000       0.000000
                                                         4.644000       0.000000
                                                         1.293000       0.000000
                                                         0.511800       0.000000
                                                         0.178700       0.195886

                          3       1    1dx2              1.654000       3.970513
                                                         0.469000       0.000000
                          3       1    1dxy              1.654000       6.877130
                                                         0.469000       0.000000
                          3       1    1dxz              1.654000       6.877130
                                                         0.469000       0.000000
                          3       1    1dy2              1.654000       3.970513
                                                         0.469000       0.000000
                          3       1    1dyz              1.654000       6.877130
                                                         0.469000       0.000000
                          3       1    1dz2              1.654000       3.970513
                                                         0.469000       0.000000

                          3       2    2dx2              1.654000       0.000000
                                                         0.469000       0.437484
                          3       2    2dxy              1.654000       0.000000
                                                         0.469000       0.757744
                          3       2    2dxz              1.654000       0.000000
                                                         0.469000       0.757744
                          3       2    2dy2              1.654000       0.000000
                                                         0.469000       0.437484
                          3       2    2dyz              1.654000       0.000000
                                                         0.469000       0.757744
                          3       2    2dz2              1.654000       0.000000
                                                         0.469000       0.437484

                          4       1    1fx3              1.093000       1.798249
                          4       1    1fx2y             1.093000       4.021007
                          4       1    1fx2z             1.093000       4.021007
                          4       1    1fxy2             1.093000       4.021007
                          4       1    1fxyz             1.093000       6.964588
                          4       1    1fxz2             1.093000       4.021007
                          4       1    1fy3              1.093000       1.798249
                          4       1    1fy2z             1.093000       4.021007
                          4       1    1fyz2             1.093000       4.021007
                          4       1    1fz3              1.093000       1.798249

     RI Auxiliary Basis Set                                        cc-pVTZ-RIFIT

       Number of orbital shell sets:                                          23
       Number of orbital shells:                                              23
       Number of primitive Cartesian functions:                               23
       Number of Cartesian basis functions:                                  101
       Number of spherical basis functions:                                   81
       Norm type:                                                              2

       Normalised Cartesian orbitals:

                        Set   Shell   Orbital            Exponent    Coefficient

                          1       1    1s                0.311588       0.297232

                          2       1    1px               0.373533       0.416247
                          2       1    1py               0.373533       0.416247
                          2       1    1pz               0.373533       0.416247

                          3       1    1dx2              0.419484       0.359883
                          3       1    1dxy              0.419484       0.623335
                          3       1    1dxz              0.419484       0.623335
                          3       1    1dy2              0.419484       0.359883
                          3       1    1dyz              0.419484       0.623335
                          3       1    1dz2              0.419484       0.359883

                          4       1    1s                0.766748       0.583982

                          5       1    1dx2              0.837683       1.207255
                          5       1    1dxy              0.837683       2.091027
                          5       1    1dxz              0.837683       2.091027
                          5       1    1dy2              0.837683       1.207255
                          5       1    1dyz              0.837683       2.091027
                          5       1    1dz2              0.837683       1.207255

                          6       1    1fx3              0.846776       1.012591
                          6       1    1fx2y             0.846776       2.264223
                          6       1    1fx2z             0.846776       2.264223
                          6       1    1fxy2             0.846776       2.264223
                          6       1    1fxyz             0.846776       3.921748
                          6       1    1fxz2             0.846776       2.264223
                          6       1    1fy3              0.846776       1.012591
                          6       1    1fy2z             0.846776       2.264223
                          6       1    1fyz2             0.846776       2.264223
                          6       1    1fz3              0.846776       1.012591

                          7       1    1px               0.850834       1.164786
                          7       1    1py               0.850834       1.164786
                          7       1    1pz               0.850834       1.164786

                          8       1    1s                1.222668       0.828689

                          9       1    1px               1.407740       2.185714
                          9       1    1py               1.407740       2.185714
                          9       1    1pz               1.407740       2.185714

                         10       1    1fx3              1.558946       3.997832
                         10       1    1fx2y             1.558946       8.939425
                         10       1    1fx2z             1.558946       8.939425
                         10       1    1fxy2             1.558946       8.939425
                         10       1    1fxyz             1.558946      15.483538
                         10       1    1fxz2             1.558946       8.939425
                         10       1    1fy3              1.558946       3.997832
                         10       1    1fy2z             1.558946       8.939425
                         10       1    1fyz2             1.558946       8.939425
                         10       1    1fz3              1.558946       3.997832

                         11       1    1gx4              1.776407       5.403523
                         11       1    1gx3y             1.776407      14.296377
                         11       1    1gx3z             1.776407      14.296377
                         11       1    1gx2y2            1.776407      18.456544
                         11       1    1gx2yz            1.776407      31.967672
                         11       1    1gx2z2            1.776407      18.456544
                         11       1    1gxy3             1.776407      14.296377
                         11       1    1gxy2z            1.776407      31.967672
                         11       1    1gxyz2            1.776407      31.967672
                         11       1    1gxz3             1.776407      14.296377
                         11       1    1gy4              1.776407       5.403523
                         11       1    1gy3z             1.776407      14.296377
                         11       1    1gy2z2            1.776407      18.456544
                         11       1    1gyz3             1.776407      14.296377
                         11       1    1gz4              1.776407       5.403523

                         12       1    1dx2              2.210185       6.594160
                         12       1    1dxy              2.210185      11.421421
                         12       1    1dxz              2.210185      11.421421
                         12       1    1dy2              2.210185       6.594160
                         12       1    1dyz              2.210185      11.421421
                         12       1    1dz2              2.210185       6.594160

                         13       1    1s                2.431967       1.387965

                         14       1    1px               2.898158       5.390049
                         14       1    1py               2.898158       5.390049
                         14       1    1pz               2.898158       5.390049

                         15       1    1fx3              3.473067      24.241470
                         15       1    1fx2y             3.473067      54.205574
                         15       1    1fx2z             3.473067      54.205574
                         15       1    1fxy2             3.473067      54.205574
                         15       1    1fxyz             3.473067      93.886808
                         15       1    1fxz2             3.473067      54.205574
                         15       1    1fy3              3.473067      24.241470
                         15       1    1fy2z             3.473067      54.205574
                         15       1    1fyz2             3.473067      54.205574
                         15       1    1fz3              3.473067      24.241470

                         16       1    1dx2              4.584723      23.643264
                         16       1    1dxy              4.584723      40.951334
                         16       1    1dxz              4.584723      40.951334
                         16       1    1dy2              4.584723      23.643264
                         16       1    1dyz              4.584723      40.951334
                         16       1    1dz2              4.584723      23.643264

                         17       1    1s                7.906874       3.360576

                         18       1    1px              10.323897      26.378169
                         18       1    1py              10.323897      26.378169
                         18       1    1pz              10.323897      26.378169

                         19       1    1dx2             13.908637     164.876008
                         19       1    1dxy             13.908637     285.573622
                         19       1    1dxz             13.908637     285.573622
                         19       1    1dy2             13.908637     164.876008
                         19       1    1dyz             13.908637     285.573622
                         19       1    1dz2             13.908637     164.876008

                         20       1    1s               21.681924       7.161161

                         21       1    1px              34.965027     121.194365
                         21       1    1py              34.965027     121.194365
                         21       1    1pz              34.965027     121.194365

                         22       1    1s               64.276031      16.178821

                         23       1    1s              287.509269      49.762132

       Atomic covalent radius [Angstrom]:                                  0.750

       Atomic van der Waals radius [Angstrom]:                             1.550

     The atoms of this atomic kind are PAW atoms (GAPW):
       Hard Gaussian function radius:                                      1.512
       Rho0 radius:                                                        1.512
       Maximum GTO radius used for PAW projector construction:            24.566

     GAPW Soft Basis Set                                            cc-pVTZ_soft

       Number of orbital shell sets:                                           4
       Number of orbital shells:                                              10
       Number of primitive Cartesian functions:                                9
       Number of Cartesian basis functions:                                   35
       Number of spherical basis functions:                                   30
       Norm type:                                                              2

       Normalised Cartesian orbitals:

                        Set   Shell   Orbital            Exponent    Coefficient

                          1       1    1px               1.742000       0.000000
                                                         0.555000       0.682820
                                                         0.172500       0.000000
                          1       1    1py               1.742000       0.000000
                                                         0.555000       0.682820
                                                         0.172500       0.000000
                          1       1    1pz               1.742000       0.000000
                                                         0.555000       0.682820
                                                         0.172500       0.000000

                          1       2    2px               1.742000       0.852042
                                                         0.555000       0.340377
                                                         0.172500       0.053406
                          1       2    2py               1.742000       0.852042
                                                         0.555000       0.340377
                                                         0.172500       0.053406
                          1       2    2pz               1.742000       0.852042
                                                         0.555000       0.340377
                                                         0.172500       0.053406

                          1       3    3px               1.742000       0.000000
                                                         0.555000       0.000000
                                                         0.172500       0.158462
                          1       3    3py               1.742000       0.000000
                                                         0.555000       0.000000
                                                         0.172500       0.158462
                          1       3    3pz               1.742000       0.000000
                                                         0.555000       0.000000
                                                         0.172500       0.158462

                          2       1    1s                1.293000       0.035658
                                                         0.511800      -0.003669
                                                         0.178700       0.000467

                          2       2    2s                1.293000       0.864190
                                                         0.511800       0.000000
                                                         0.178700       0.000000

                          2       3    3s                1.293000       0.131196
                                                         0.511800       0.258729
                                                         0.178700       0.075898

                          2       4    4s                1.293000       0.000000
                                                         0.511800       0.000000
                                                         0.178700       0.195886

                          3       1    1dx2              1.654000       3.970513
                                                         0.469000       0.000000
                          3       1    1dxy              1.654000       6.877130
                                                         0.469000       0.000000
                          3       1    1dxz              1.654000       6.877130
                                                         0.469000       0.000000
                          3       1    1dy2              1.654000       3.970513
                                                         0.469000       0.000000
                          3       1    1dyz              1.654000       6.877130
                                                         0.469000       0.000000
                          3       1    1dz2              1.654000       3.970513
                                                         0.469000       0.000000

                          3       2    2dx2              1.654000       0.000000
                                                         0.469000       0.437484
                          3       2    2dxy              1.654000       0.000000
                                                         0.469000       0.757744
                          3       2    2dxz              1.654000       0.000000
                                                         0.469000       0.757744
                          3       2    2dy2              1.654000       0.000000
                                                         0.469000       0.437484
                          3       2    2dyz              1.654000       0.000000
                                                         0.469000       0.757744
                          3       2    2dz2              1.654000       0.000000
                                                         0.469000       0.437484

                          4       1    1fx3              1.093000       1.798249
                          4       1    1fx2y             1.093000       4.021007
[...]
 tddfpt_energies                      1  5.0    0.000    0.001  206.945  206.946
 tddfpt_davidson_solver               1  6.0    0.002    0.003  204.910  204.910
 tddfpt_compute_Aop_evects            9  7.0    0.000    0.000  201.793  201.794
 fhxc_kernel                          9  8.0    0.008    0.010  174.631  174.631
 pw_poisson_solve                   246  9.5    2.053    2.626   88.051   88.714
 scf_env_do_scf                       1  3.0    0.000    0.000   84.373   84.379
 scf_env_do_scf_inner_loop           66  4.0    0.002    0.004   84.373   84.379
 fft_wrap_pw1pw2                   5000 11.1    0.081    0.114   80.098   80.935
 tddfpt_apply_coulomb               180  9.0    0.004    0.005   77.488   78.118
 fft_wrap_pw1pw2_250               3518 12.2    2.432    2.667   75.905   76.744
 fft3d_ps                          5000 13.1   23.235   24.824   69.586   70.652
 qs_ks_update_qs_env                 66  5.0    0.000    0.001   64.103   64.113
 rebuild_ks_matrix                   66  6.0    0.000    0.000   64.097   64.108
 qs_ks_build_kohn_sham_matrix        66  7.0    0.010    0.011   64.097   64.107
 ps_wavelet_solve                   246 10.5   25.228   36.496   61.147   61.442
 mp_alltoall_z22v                  5000 15.1   40.619   49.634   40.619   49.634
 qs_rho_update_rho_low              248  7.9    0.003    0.003   45.274   45.280
 calculate_rho_elec                 248  8.9    0.541    0.579   41.579   41.586
 integrate_four_center              426  9.8    8.603   18.310   34.001   34.141
 mp_alltoall_d54                    246 11.5   13.782   34.072   13.782   34.072
 xc_pw_derive                      1479 11.0    0.014    0.018   31.540   32.910
 integrate_v_rspace                 246  9.0    0.006    0.008   30.818   31.061
 density_rs2pw                      248  9.9    0.014    0.017   27.100   29.095
 tddfpt_apply_xc_analytic           180  9.0    0.124    0.152   28.270   28.413
 x_to_yz                           2038 13.8    2.378    2.709   25.643   27.379
 tddfpt_apply_hfx                     9  8.0    0.004    0.005   25.711   25.711
 mp_alltoall_d45                    247 11.5   21.991   24.543   21.991   24.543
 yz_to_x                           1974 14.5    1.798    2.195   18.983   24.295
 potential_pw2rs                    246 10.0    0.051    0.069   22.414   22.689
 xc_pw_divergence                   246 10.7    0.008    0.010   21.236   22.397
 tddft_hfx_matrix                   360  9.0    0.010    0.011   21.942   22.047
 transfer_rs2pw                    1240 10.9    0.036    0.063   20.046   21.982
 transfer_pw2rs                    1231 10.9    0.016    0.019   20.581   20.797
 mp_sync                           2254 11.5   10.914   19.264   10.914   19.264
 mp_alltoall_d11v                 15836 11.6   14.700   18.394   14.700   18.394
 xc_calc_2nd_deriv_analytical      1260 10.1    0.871    1.032   16.574   16.669
 mp_waitany                       62286 12.8   14.387   16.517   14.387   16.517
 grid_collocate_task_list           248  9.9   13.390   16.471   13.390   16.471
 prepare_gapw_den                   247  8.7    0.005    0.006   14.239   14.423
 transfer_rs2pw_250                 496 11.8    3.791    4.201   10.368   12.311
 hfx_ks_matrix                       66  8.0    0.002    0.003   12.074   12.121
 qs_vxc_create                       66  8.0    0.001    0.001   11.584   11.592
 xc_vxc_pw_create                    66  9.0    0.186    0.215   11.583   11.591
 transfer_pw2rs_250                 493 11.7    3.601    3.907   11.201   11.500
 put_rho0_on_grid                   247  9.7    0.567    0.693   10.941   11.124
 integrate_vhg0_rspace              246  9.5    0.237    0.298    9.980   10.073
 mp_waitall_1                    506394 13.2    7.229    8.841    7.229    8.841
 rs_gather_matrices                 246 10.0    0.024    0.031    8.109    8.466
 cp_dbcsr_sm_fm_multiply           1126  8.6    0.025    0.029    8.168    8.282
 grid_integrate_task_list           246 10.0    0.289    8.144    0.289    8.144
 sum_up_and_integrate                66  8.0    0.001    0.001    7.985    8.012
 calculate_xc_2nd_deriv_atom        180  9.0    0.075    2.535    0.189    7.815
 mp_sum_d                          6721  7.5    4.214    6.719    4.214    6.719
 mp_sum_dm                         8261 10.1    6.478    6.719    6.478    6.719
 gaVxcgb_GC                         738  9.7    0.116    6.503    0.116    6.503
 dbcsr_complete_redistribute       3735 10.5    0.155    0.219    5.654    5.757
 xc_rho_set_and_dset_create          67 10.0    0.156    0.196    5.373    5.754
 transfer_rs2pw_30                  248 11.9    2.345    2.443    5.329    5.592
 transfer_pw2rs_30                  246 12.0    2.255    2.451    5.111    5.420
 gspace_mixing                       65  5.0    0.141    0.152    5.030    5.031
 calc_screening_functions             1 10.0    2.622    2.733    4.454    4.593
 mp_sendrecv_dv                  106640 12.9    3.966    4.271    3.966    4.271
 copy_fm_to_dbcsr                  2519  9.6    0.012    0.013    3.742    3.848
 pw_scatter_p                      2530 12.8    3.242    3.827    3.242    3.827
 copy_dbcsr_to_fm                  1214  9.3    0.017    0.018    3.727    3.796
 broyden_mixing                      65  6.0    3.533    3.639    3.645    3.697
 calculate_rho_atom_coeff           248  8.9    0.049    0.096    3.692    3.694
 integrate_four_center_main         426 10.8    0.073    0.345    3.147    3.670
 integrate_four_center_bin        97657 11.9    3.074    3.577    3.074    3.577
 powell_optimize                1376938 11.0    3.403    3.553    3.403    3.553
 mp_isendrecv_dv                 288960 12.3    1.745    3.395    1.745    3.395
 cp_fm_syevd                        117  7.2    0.001    0.001    3.295    3.300
 transfer_rs2pw_90                  248 11.9    0.611    0.735    2.730    3.264
 dbcsr_multiply_generic            1552 10.3    0.074    0.081    3.160    3.261
 pw_gather_p                       2470 13.4    2.720    3.246    2.720    3.246
 cp_fm_redistribute_end             117  8.2    1.628    3.144    1.636    3.150
 calculate_rho_atom                 988  9.7    1.568    3.106    1.568    3.106
 cp2k_distribution_to_z_slices      246 10.5    1.141    1.246    2.532    3.098
 qs_scf_new_mos                      66  5.0    0.001    0.001    3.020    3.028
 transfer_pw2rs_90                  246 12.0    0.583    0.681    2.672    3.025
 cp_fm_syevd_base                   117  8.2    1.509    3.025    1.509    3.025
 fft_wrap_pw1pw2_90                 494 12.0    0.074    0.117    2.566    2.924
 rs_grid_zero                      1233 11.9    2.644    2.872    2.644    2.872
 mp_alltoall_i11v                 12420 11.5    2.807    2.809    2.807    2.809
 pw_derive                         2217 11.8    2.431    2.653    2.431    2.653
 create_qs_kind_set                   1  2.0    0.000    0.000    2.436    2.436
 read_qs_kind                         4  3.0    1.313    1.367    2.435    2.436
 integrate_four_center_getP         426 10.8    0.170    0.187    2.420    2.427
 eigensolver_symm                    66  6.0    0.002    0.002    2.384    2.388
 integrate_four_center_dist_KS      426 10.8    0.161    0.182    2.372    2.379
 calc_pair_dist_radii                 1 10.0    0.737    0.754    2.308    2.373
 calculate_vxc_atom                  66  8.0    0.047    0.494    2.335    2.337
 cp_dbcsr_sm_fm_multiply_core      1126  9.6    0.003    0.003    2.204    2.291
 mp_sum_dv                        25573  8.9    2.024    2.153    2.024    2.153
 multiply_cannon                   1552 11.3    0.194    0.202    1.887    1.964
 pw_copy                           3335 11.0    1.672    1.808    1.672    1.808
 tddfpt_orthonormalize_psi1_psi      10  6.9    0.024    0.026    1.803    1.803
 dbcsr_desymmetrize_deep           1215 10.3    0.035    0.041    1.706    1.774
 cp_dbcsr_plus_fm_fm_t              246  8.5    0.004    0.004    1.715    1.731
 transfer_pw2rs_10                  246 12.0    0.590    0.716    1.581    1.663
 pw_copy_to_array                  2470 13.4    1.193    1.640    1.193    1.640
 transfer_rs2pw_10                  248 11.9    0.601    0.646    1.583    1.613
 xc_functional_eval                1543 10.9    0.001    0.005    0.906    1.607
 pbe_lda_eval                      1543 11.9    0.906    1.603    0.906    1.603
 multiply_cannon_loop              1552 12.3    0.360    0.373    1.441    1.541
 tddfpt_print_nto_analysis            1  6.0    0.003    0.004    1.501    1.501
 pw_poisson_set                     247 10.4    0.006    0.008    1.463    1.491
 tddfpt_apply_energy_diff             9  8.0    0.001    0.001    1.452    1.452
 mp_isend_dv                     162028 13.8    0.838    1.282    0.838    1.282
 mp_irecv_dm3                      8898 12.8    0.631    1.215    0.631    1.215
 Vh_1c_gg_integrals                 246  9.5    0.032    0.453    0.609    1.188
 tddfpt_compute_residual_vects        8  7.0    0.001    0.001    1.166    1.166
 parser_read_line                279322  4.0    0.094    0.104    1.123    1.150
 pw_integral_ab_c1d_c1d_gs          246 10.5    0.800    0.807    1.029    1.122
 mp_alltoall_z11v                   988 15.0    1.029    1.066    1.029    1.066
 parser_read_line_low               304  5.0    0.086    0.436    1.028    1.058
 fft_wrap_pw1pw2_30                 494 12.0    0.014    0.015    1.015    1.052
 pw_axpy                           2648 10.8    0.924    1.034    0.924    1.034
 broadcast_input_information        304  6.0    0.211    0.232    0.942    1.014
 mp_isend_dm3                      8898 12.8    0.504    0.970    0.504    0.970
 qs_energies_init_hamiltonians        1  3.0    0.000    0.000    0.962    0.962
 cp_fm_geeig                         20  7.0    0.001    0.001    0.957    0.958
 build_core_hamiltonian_matrix        1  4.0    0.000    0.000    0.950    0.950
 overlap_condnum                      1  5.0    0.000    0.000    0.946    0.948
 pw_copy_from_array                2530 12.8    0.751    0.933    0.751    0.933
 make_m2s                          3104 11.3    0.066    0.079    0.866    0.930
 pw_zero                           2742 10.6    0.787    0.917    0.787    0.917
 mp_max_i                           713  5.1    0.340    0.887    0.340    0.887
 hybrid_alltoall_any               4319 13.5    0.039    0.051    0.843    0.878
 mp_alltoall_i22                   4950 11.4    0.643    0.828    0.643    0.828
 arnoldi_conjugate_gradient           5  6.0    0.019    0.023    0.822    0.822
 parallel_gemm_fm                  1661  8.3    0.002    0.002    0.792    0.805
 parallel_gemm_fm_gemm             1661  9.3    0.002    0.002    0.790    0.803
 cp_fm_gemm                        1661 10.3    0.788    0.800    0.788    0.800
 make_images                       3104 12.3    0.177    0.186    0.698    0.752
 yz_to_xz                           492 14.0    0.044    0.050    0.677    0.711
 pw_poisson_rebuild                 246 10.5    0.000    0.000    0.607    0.631
 ps_wavelet_create                    1 10.0    0.000    0.000    0.607    0.630
 RS_z_slice_distribution              1 11.0    0.499    0.587    0.607    0.630
 offload_free_buffer                254 10.2    0.534    0.626    0.534    0.626
 fft_wrap_pw1pw2_10                 494 12.0    0.005    0.005    0.531    0.538
 mp_bcast_i_src                    1216  7.0    0.343    0.524    0.343    0.524
 dbcsr_sym_matrix_vector_mult      2835  7.0    0.044    0.048    0.416    0.501
 xc_2nd_deriv_of_r                 1080 10.0    0.001    0.078    0.008    0.464
 calculate_dm_sparse                 66  6.0    0.000    0.001    0.425    0.435
 xz_to_yz                           496 13.9    0.029    0.034    0.426    0.432
 mp_rank_compare                   5000 14.1    0.409    0.431    0.409    0.431
 mp_sum_l                          5940 10.6    0.358    0.427    0.358    0.427
 cp_fm_trace_a1b1t1_aa            16500  8.0    0.078    0.083    0.418    0.422
 mp_bcast_am_src                    304  7.0    0.326    0.396    0.359    0.419
 multiply_cannon_metrocomm4       52768 13.3    0.155    0.163    0.311    0.366
 dbcsr_finalize                   11839 11.4    0.043    0.091    0.195    0.361
 multiply_cannon_metrocomm3       55872 13.3    0.091    0.094    0.246    0.360
 update_ks_atom                     246  8.7    0.036    0.076    0.273    0.356
 init_scf_run                         1  3.0    0.000    0.000    0.328    0.329
 prepare_dr1dr                     1260 11.1    0.275    0.309    0.275    0.309
 mp_bcast_dm                       5412  9.7    0.238    0.303    0.238    0.303
 make_images_sizes                 3104 13.3    0.004    0.004    0.278    0.298
 mp_alltoall_i44                   3104 14.3    0.275    0.295    0.275    0.295
 multiply_cannon_metrocomm2       51216 13.3    0.152    0.159    0.273    0.292
 scf_env_initial_rho_setup            1  4.0    0.000    0.000    0.283    0.284
 scale_and_distribute               492 11.5    0.253    0.272    0.253    0.272
 integrate_four_center_load         426 10.8    0.001    0.002    0.199    0.269
 hfx_load_balance                     1 11.0    0.000    0.000    0.198    0.268
 mp_cart_sub                       2432 11.3    0.262    0.264    0.262    0.264
 multiply_cannon_metrocomm1       55872 13.3    0.064    0.067    0.169    0.263
 dbcsr_add_d                       4301  7.0    0.004    0.005    0.036    0.255
 dbcsr_add_anytype                 4301  8.0    0.005    0.033    0.032    0.250
 hfx_load_balance_range               1 12.0    0.000    0.000    0.177    0.246
 tddfpt_construct_ground_state_       1  6.0    0.000    0.000    0.244    0.245
 rs_scatter_matrices                248  9.9    0.003    0.006    0.207    0.214
 qs_init_subsys                       1  2.0    0.004    0.008    0.207    0.207
 dbcsr_col_vec_to_rep_row          2835  8.0    0.020    0.023    0.133    0.202
 dbcsr_merge_all                   9919 12.4    0.085    0.146    0.110    0.201
 dbcsr_create_new                 43430 11.3    0.143    0.154    0.185    0.199
 multiply_cannon_multrec          55872 13.3    0.076    0.189    0.084    0.196
 mp_cart_create                    2203 10.6    0.178    0.192    0.181    0.195
 qs_env_setup                         1  3.0    0.000    0.000    0.187    0.192
 qs_env_rebuild_pw_env                2  3.5    0.000    0.000    0.186    0.190
 pw_env_rebuild                       1  5.0    0.001    0.001    0.185    0.190
 dbcsr_rep_row_to_rep_col_vec      2835  8.0    0.014    0.016    0.071    0.181
 calculate_rho0_atom                988  9.7    0.177    0.179    0.177    0.179
 mp_allgather_i34                  1552 12.3    0.149    0.175    0.149    0.175
 mp_irecv_dv                     162862 13.8    0.120    0.162    0.120    0.162
 cp_fm_redistribute_start           117  8.2    0.118    0.120    0.149    0.159
 tddfpt_compute_ritz_vects            9  7.0    0.007    0.007    0.153    0.154
 make_images_data                  3104 13.3    0.038    0.052    0.087    0.153
 pw_grid_setup                        4  6.0    0.000    0.000    0.139    0.144
 pw_grid_setup_internal               4  7.0    0.003    0.004    0.139    0.144
 mp_bcast_dv                       2952  9.0    0.057    0.126    0.057    0.126
 dbcsr_iterator_start             59257 10.3    0.072    0.096    0.088    0.125
 vxc_of_r_new                       396  9.0    0.000    0.017    0.002    0.114
 dbcsr_special_finalize            7760 13.3    0.030    0.032    0.085    0.114
 pw_scale                           624  9.5    0.096    0.112    0.096    0.112
 cp_fm_cholesky_decompose            20  8.0    0.109    0.110    0.109    0.110
 cube_transpose_2                   496 13.9    0.010    0.011    0.099    0.109
 dbcsr_copy                       15228  8.4    0.051    0.056    0.097    0.106
 tddfpt_orthogonalize_psi1_psi0      10  6.9    0.000    0.001    0.094    0.104
 create_kernel_env                    1  6.0    0.000    0.000    0.093    0.102
 xc_prep_2nd_deriv                    1  7.0    0.000    0.000    0.093    0.102
 rs_grid_create                     252 10.4    0.001    0.002    0.010    0.102
 offload_create_buffer              254 11.3    0.009    0.100    0.009    0.100
 cube_transpose_1                   492 14.0    0.008    0.009    0.087    0.097
 copy_fm_to_dbcsr_bc               2519 10.6    0.028    0.031    0.083    0.091
 mp_isend_iv                     111318 14.3    0.083    0.091    0.083    0.091
 cp_fm_triangular_multiply           60  8.0    0.089    0.091    0.089    0.091
 mp_bcast_iv_src                    304  7.0    0.030    0.089    0.030    0.089
 cp_fm_triangular_invert             20  8.0    0.085    0.086    0.085    0.086
 mp_bcast_iv                        325  7.6    0.033    0.085    0.033    0.085
 dbcsr_work_create                18894 12.5    0.036    0.052    0.057    0.083
 dbcsr_iterator_stop              59257 10.3    0.052    0.066    0.064    0.080
 dbcsr_destroy                    37698 10.8    0.048    0.050    0.070    0.075
 dbcsr_merge_single_wm             7760 14.3    0.038    0.046    0.045    0.072
 pw_grid_sort                         4  8.0    0.043    0.044    0.067    0.071
 dbcsr_data_release              209803 12.3    0.055    0.069    0.055    0.069
 dbcsr_data_new                  129132 12.6    0.059    0.069    0.059    0.069
 dbcsr_work_destroy_all           18894 13.4    0.032    0.047    0.043    0.065
 dbcsr_make_images_dense            852 11.7    0.018    0.022    0.044    0.062
 mp_cart_rank                    213012 11.0    0.056    0.061    0.056    0.061
 scf_post_calculation_gpw             1  3.0    0.000    0.000    0.057    0.057
 write_available_results              1  4.0    0.000    0.000    0.057    0.057
 write_mo_free_results                1  5.0    0.003    0.004    0.056    0.057
 cp_fm_power                          1  6.0    0.000    0.000    0.055    0.055
 mixing_init                          1  5.0    0.041    0.054    0.054    0.054
 cp_fm_symm                          66  7.0    0.047    0.053    0.047    0.053
 tddfpt_is_nonorthogonal_psi1_p       8  7.0    0.000    0.001    0.052    0.052
 mp_irecv_iv                     111450 14.3    0.045    0.050    0.045    0.050
 cp_fm_write_unformatted             24  7.0    0.025    0.041    0.026    0.048
 compute_max_radius                   1  6.0    0.040    0.041    0.040    0.041
 create_fast_col_vec_access        5670  8.0    0.023    0.026    0.035    0.040
 setup_buffer_matrices             3104 12.3    0.012    0.013    0.038    0.040
 create_fast_row_vec_access        5670  8.0    0.023    0.026    0.036    0.039
 write_mo_set_to_restart             66  5.0    0.001    0.007    0.009    0.032
 dbcsr_make_dense_low              2130 12.7    0.011    0.011    0.016    0.032
 mp_maxloc_dv                      1251  1.0    0.029    0.031    0.029    0.031
 pw_pool_create_pw                 8586 10.8    0.019    0.022    0.026    0.030
 -------------------------------------------------------------------------------

 The number of warnings for this run is : 1
 
 -------------------------------------------------------------------------------
  **** **** ******  **  PROGRAM ENDED AT                 2025-04-02 17:43:20.348
 ***** ** ***  *** **   PROGRAM RAN ON                              i03r06c01s07
 **    ****   ******    PROGRAM RAN BY                                   di38fab
 ***** **    ** ** **   PROGRAM PROCESS ID                               2256679
  **** **  *******  **  PROGRAM STOPPED IN /hppfs/scratch/04/di38fab/07_MOL_non_
                                           aug/05_MOL_non_aug/05_MOL/aUKBqsEOTmq
                                           69kFe5R_nOg/5k_set_final_qzvp/QARVOV/
                                           cc-pVTZ/TDDFT
