 DBCSR| CPU Multiplication driver                                           BLAS (U)
 DBCSR| Multrec recursion limit                                              512 (U)
 DBCSR| Multiplication stack size                                           1000 (D)
 DBCSR| Maximum elements for images                                    UNLIMITED (U)
 DBCSR| Multiplicative factor virtual images                                   1 (U)
 DBCSR| Use multiplication densification                                       T (D)
 DBCSR| Multiplication size stacks                                             3 (U)
 DBCSR| Use memory pool for CPU allocation                                     F (U)
 DBCSR| Number of 3D layers                                               SINGLE (U)
 DBCSR| Use MPI memory allocation                                              F (U)
 DBCSR| Use RMA algorithm                                                      F (U)
 DBCSR| Use Communication thread                                               T (U)
 DBCSR| Communication thread load                                             45 (D)
 DBCSR| MPI: My process id                                                     0
 DBCSR| MPI: Number of processes                                             512
 DBCSR| OMP: Current number of threads                                        12
 DBCSR| OMP: Max number of threads                                            12
 DBCSR| Split modifier for TAS multiplication algorithm                  1.0E+00 (U)


  **** **** ******  **  PROGRAM STARTED AT               2025-04-14 13:48:11.161
 ***** ** ***  *** **   PROGRAM STARTED ON                          i05r06c03s01
 **    ****   ******    PROGRAM STARTED BY                               di38fab
 ***** **    ** ** **   PROGRAM PROCESS ID                               2633429
  **** **  *******  **  PROGRAM STARTED IN /hppfs/scratch/04/di38fab/05_MOL/aUKB
                                           qsEOTmq69kFe5R_nOg/5k_set_final_qzvp/
                                           LIVZIA/aug-cc-pV5Z/TDDFT

 CP2K| version string:                 CP2K version 2025.1 (Development Version)
 CP2K| source code revision number:                             unknown revision
 CP2K| cp2kflags: omp libint fftw3 libxc parallel scalapack max_contr=4         
 CP2K| is freely available from                            https://www.cp2k.org/
 CP2K| Program compiled at                         Thu Apr 10 16:20:23 CEST 2025
 CP2K| Program compiled on                                               login01
 CP2K| Program compiled for                                        Supermuc-foss
 CP2K| Data directory path                  /hppfs/work/pn36zo/di38fab/cp2k/data
 CP2K| Input file name                                                    GW.inp

 GLOBAL| Force Environment number                                              1
 GLOBAL| Basis set file name            /hppfs/scratch/04/di38fab/04_TMD/BASIS_A
 GLOBAL| Potential file name            /hppfs/work/pn36zo/di38fab/cp2k/data/ALL
 GLOBAL| MM Potential file name                                     MM_POTENTIAL
 GLOBAL| Coordinate file name                                      __STD_INPUT__
 GLOBAL| Method name                                                        CP2K
 GLOBAL| Project name                                                       MoS2
 GLOBAL| Run type                                                         ENERGY
 GLOBAL| FFT library                                                       FFTW3
 GLOBAL| Diagonalization library                                       ScaLAPACK
 GLOBAL| DGEMM library                                                      BLAS
 GLOBAL| Orthonormality check for eigenvectors                          DISABLED
 GLOBAL| Matrix multiplication library                                 ScaLAPACK
 GLOBAL| All-to-all communication in single precision                          F
 GLOBAL| FFTs using library dependent lengths                                  F
 GLOBAL| Grid backend                                                       AUTO
 GLOBAL| Global print level                                               MEDIUM
 GLOBAL| MPI I/O enabled                                                       T
 GLOBAL| Total number of message passing processes                           512
 GLOBAL| Number of threads for this process                                   12
 GLOBAL| This output is from process                                           0
 GLOBAL| OpenMP stack size per thread (OMP_STACKSIZE)                    default
 GLOBAL| CPU model name             Intel(R) Xeon(R) Platinum 8174 CPU @ 3.10GHz

 MEMORY| system memory details [Kb]
 MEMORY|                        rank 0           min           max       average
 MEMORY| MemTotal             98436708      98436648      98436736      98436670
 MEMORY| MemFree              85205664      84334592      87175072      84903279
 MEMORY| Buffers                     0             0             0             0
 MEMORY| Cached                2369724       2247020       2383768       2356016
 MEMORY| Slab                  1185948        859540       1283960       1239482
 MEMORY| SReclaimable           267896        165056        286884        272860
 MEMORY| MemLikelyFree        87843284      86959188      89592968      87532156


 *** Fundamental physical constants (SI units) ***

 *** Literature: B. J. Mohr and B. N. Taylor,
 ***             CODATA recommended values of the fundamental physical
 ***             constants: 2006, Web Version 5.1
 ***             http://physics.nist.gov/constants

 Speed of light in vacuum [m/s]                             2.99792458000000E+08
 Magnetic constant or permeability of vacuum [N/A**2]       1.25663706143592E-06
 Electric constant or permittivity of vacuum [F/m]          8.85418781762039E-12
 Planck constant (h) [J*s]                                  6.62606896000000E-34
 Planck constant (h-bar) [J*s]                              1.05457162825177E-34
 Elementary charge [C]                                      1.60217648700000E-19
 Electron mass [kg]                                         9.10938215000000E-31
 Electron g factor [ ]                                     -2.00231930436220E+00
 Proton mass [kg]                                           1.67262163700000E-27
 Fine-structure constant                                    7.29735253760000E-03
 Rydberg constant [1/m]                                     1.09737315685270E+07
 Avogadro constant [1/mol]                                  6.02214179000000E+23
 Boltzmann constant [J/K]                                   1.38065040000000E-23
 Atomic mass unit [kg]                                      1.66053878200000E-27
 Bohr radius [m]                                            5.29177208590000E-11

 *** Conversion factors ***

 [u] -> [a.u.]                                              1.82288848426455E+03
 [Angstrom] -> [Bohr] = [a.u.]                              1.88972613288564E+00
 [a.u.] = [Bohr] -> [Angstrom]                              5.29177208590000E-01
 [a.u.] -> [s]                                              2.41888432650478E-17
 [a.u.] -> [fs]                                             2.41888432650478E-02
 [a.u.] -> [J]                                              4.35974393937059E-18
 [a.u.] -> [N]                                              8.23872205491840E-08
 [a.u.] -> [K]                                              3.15774647902944E+05
 [a.u.] -> [kJ/mol]                                         2.62549961709828E+03
 [a.u.] -> [kcal/mol]                                       6.27509468713739E+02
 [a.u.] -> [Pa]                                             2.94210107994716E+13
 [a.u.] -> [bar]                                            2.94210107994716E+08
 [a.u.] -> [atm]                                            2.90362800883016E+08
 [a.u.] -> [eV]                                             2.72113838565563E+01
 [a.u.] -> [Hz]                                             6.57968392072181E+15
 [a.u.] -> [1/cm] (wave numbers)                            2.19474631370540E+05
 [a.u./Bohr**2] -> [1/cm]                                   5.14048714338585E+03
 

 CELL_TOP| Volume [angstrom^3]:                                     27000.000000
 CELL_TOP| Vector a [angstrom    30.000     0.000     0.000   |a| =    30.000000
 CELL_TOP| Vector b [angstrom     0.000    30.000     0.000   |b| =    30.000000
 CELL_TOP| Vector c [angstrom     0.000     0.000    30.000   |c| =    30.000000
 CELL_TOP| Angle (b,c), alpha [degree]:                                90.000000
 CELL_TOP| Angle (a,c), beta  [degree]:                                90.000000
 CELL_TOP| Angle (a,b), gamma [degree]:                                90.000000
 CELL_TOP| Numerically orthorhombic:                                         YES
 CELL_TOP| Periodicity                                                      NONE

 GENERATE|  Preliminary Number of Bonds generated:                             0
 GENERATE|  Achieved consistency in connectivity generation.

 CELL| Volume [angstrom^3]:                                         27000.000000
 CELL| Vector a [angstrom]:      30.000     0.000     0.000   |a| =    30.000000
 CELL| Vector b [angstrom]:       0.000    30.000     0.000   |b| =    30.000000
 CELL| Vector c [angstrom]:       0.000     0.000    30.000   |c| =    30.000000
 CELL| Angle (b,c), alpha [degree]:                                    90.000000
 CELL| Angle (a,c), beta  [degree]:                                    90.000000
 CELL| Angle (a,b), gamma [degree]:                                    90.000000
 CELL| Numerically orthorhombic:                                             YES
 CELL| Periodicity                                                          NONE

 CELL_REF| Volume [angstrom^3]:                                     27000.000000
 CELL_REF| Vector a [angstrom    30.000     0.000     0.000   |a| =    30.000000
 CELL_REF| Vector b [angstrom     0.000    30.000     0.000   |b| =    30.000000
 CELL_REF| Vector c [angstrom     0.000     0.000    30.000   |c| =    30.000000
 CELL_REF| Angle (b,c), alpha [degree]:                                90.000000
 CELL_REF| Angle (a,c), beta  [degree]:                                90.000000
 CELL_REF| Angle (a,b), gamma [degree]:                                90.000000
 CELL_REF| Numerically orthorhombic:                                         YES
 CELL_REF| Periodicity                                                      NONE

 *******************************************************************************
 *******************************************************************************
 **                                                                           **
 **     #####                         ##              ##                      **
 **    ##   ##            ##          ##              ##                      **
 **   ##     ##                       ##            ######                    **
 **   ##     ##  ##   ##  ##   #####  ##  ##   ####   ##    #####    #####    **
 **   ##     ##  ##   ##  ##  ##      ## ##   ##      ##   ##   ##  ##   ##   **
 **   ##  ## ##  ##   ##  ##  ##      ####     ###    ##   ######   ######    **
 **    ##  ###   ##   ##  ##  ##      ## ##      ##   ##   ##       ##        **
 **     #######   #####   ##   #####  ##  ##  ####    ##    #####   ##        **
 **           ##                                                    ##        **
 **                                                                           **
 **                                                ... make the atoms dance   **
 **                                                                           **
 **            Copyright (C) by CP2K developers group (2000-2025)             **
 **                      J. Chem. Phys. 152, 194103 (2020)                    **
 **                                                                           **
 *******************************************************************************

 DFT| Spin restricted Kohn-Sham (RKS) calculation                            RKS
 DFT| Multiplicity                                                             1
 DFT| Number of spin states                                                    1
 DFT| Charge                                                                   0
 DFT| Self-interaction correction (SIC)                                       NO
 DFT| Cutoffs: density                                              1.000000E-10
 DFT|          gradient                                             1.000000E-10
 DFT|          tau                                                  1.000000E-10
 DFT|          cutoff_smoothing_range                               0.000000E+00
 DFT| XC density smoothing                                                  NONE
 DFT| XC derivatives                                                          PW

 FUNCTIONAL| PBE:
 FUNCTIONAL| J.P.Perdew, K.Burke, M.Ernzerhof, Phys. Rev. Letter, vol. 77, n 18,
 FUNCTIONAL|  pp. 3865-3868, (1996)sx=0.750sc=1.000{spin unpolarized}           


 QS| Method:                                                                GAPW
 QS| Density plane wave grid type                        NON-SPHERICAL FULLSPACE
 QS| Number of grid levels:                                                    4
 QS| Density cutoff [a.u.]:                                                250.0
 QS| Multi grid cutoff [a.u.]: 1) grid level                               250.0
 QS|                           2) grid level                                83.3
 QS|                           3) grid level                                27.8
 QS|                           4) grid level                                 9.3
 QS| Grid level progression factor:                                          3.0
 QS| Relative density cutoff [a.u.]:                                        50.0
 QS| Interaction thresholds: eps_pgf_orb:                                1.0E-12
 QS|                         eps_filter_matrix:                          0.0E+00
 QS|                         eps_core_charge:                            1.0E-14
 QS|                         eps_rho_gspace:                             1.0E-12
 QS|                         eps_rho_rspace:                             1.0E-12
 QS|                         eps_gvg_rspace:                             1.0E-06
 QS|                         eps_ppl:                                    1.0E-02
 QS|                         eps_ppnl:                                   1.0E-08
 QS| GAPW|      One center basis from orbital basis primitives
 QS| GAPW|                   eps_fit:                                    1.0E-04
 QS| GAPW|                   eps_iso:                                    1.0E-12
 QS| GAPW|                   eps_svd:                                    1.0E-08
 QS| GAPW|                   eps_cpc:                                    1.0E-12
 QS| GAPW|   atom-r-grid: quadrature:                                     GC_LOG
 QS| GAPW|      atom-s-grid:  max l :                                         10
 QS| GAPW|      max_l_rho0 :                                                   2


 ATOMIC KIND INFORMATION

  1. Atomic kind: H                                     Number of atoms:       9

     Orbital Basis Set                                               aug-cc-pV5Z

       Number of orbital shell sets:                                          10
       Number of orbital shells:                                              20
       Number of primitive Cartesian functions:                               23
       Number of Cartesian basis functions:                                  105
       Number of spherical basis functions:                                   80
       Norm type:                                                              2

       Normalised Cartesian orbitals:

                        Set   Shell   Orbital            Exponent    Coefficient

                          1       1    1s                0.020700       0.038894

                          2       1    1s              402.000000       0.000000
                                                        60.240000       0.000000
                                                        13.730000       0.000000
                                                         3.905000       0.000000
                                                         1.283000       0.859172
                                                         0.465500       0.000000
                                                         0.181100       0.000000
                                                         0.072790       0.000000

                          2       2    2s              402.000000       0.000000
                                                        60.240000       0.000000
                                                        13.730000       0.000000
                                                         3.905000       0.000000
                                                         1.283000       0.000000
                                                         0.465500       0.401652
                                                         0.181100       0.000000
                                                         0.072790       0.000000

                          2       3    3s              402.000000       0.017852
                                                        60.240000       0.033364
                                                        13.730000       0.056940
                                                         3.905000       0.088850
                                                         1.283000       0.122259
                                                         0.465500       0.132938
                                                         0.181100       0.086318
                                                         0.072790       0.017622

                          2       4    4s              402.000000       0.000000
                                                        60.240000       0.000000
                                                        13.730000       0.000000
                                                         3.905000       0.000000
                                                         1.283000       0.000000
                                                         0.465500       0.000000
                                                         0.181100       0.197856
                                                         0.072790       0.000000

                          2       5    5s              402.000000       0.000000
                                                        60.240000       0.000000
                                                        13.730000       0.000000
                                                         3.905000       0.000000
                                                         1.283000       0.000000
                                                         0.465500       0.000000
                                                         0.181100       0.000000
                                                         0.072790       0.099877

                          3       1    1px               0.074400       0.055387
                          3       1    1py               0.074400       0.055387
                          3       1    1pz               0.074400       0.055387

                          4       1    1dx2              0.156000       0.063735
                          4       1    1dxy              0.156000       0.110392
                          4       1    1dxz              0.156000       0.110392
                          4       1    1dy2              0.156000       0.063735
                          4       1    1dyz              0.156000       0.110392
                          4       1    1dz2              0.156000       0.063735

                          5       1    1px               4.516000       9.383881
                                                         1.712000       0.000000
                                                         0.649000       0.000000
                                                         0.246000       0.000000
                          5       1    1py               4.516000       9.383881
                                                         1.712000       0.000000
                                                         0.649000       0.000000
                                                         0.246000       0.000000
                          5       1    1pz               4.516000       9.383881
                                                         1.712000       0.000000
                                                         0.649000       0.000000
                                                         0.246000       0.000000

                          5       2    2px               4.516000       0.000000
                                                         1.712000       2.791385
                                                         0.649000       0.000000
                                                         0.246000       0.000000
                          5       2    2py               4.516000       0.000000
                                                         1.712000       2.791385
                                                         0.649000       0.000000
                                                         0.246000       0.000000
                          5       2    2pz               4.516000       0.000000
                                                         1.712000       2.791385
                                                         0.649000       0.000000
                                                         0.246000       0.000000

                          5       3    3px               4.516000       0.000000
                                                         1.712000       0.000000
                                                         0.649000       0.830321
                                                         0.246000       0.000000
                          5       3    3py               4.516000       0.000000
                                                         1.712000       0.000000
                                                         0.649000       0.830321
                                                         0.246000       0.000000
                          5       3    3pz               4.516000       0.000000
                                                         1.712000       0.000000
                                                         0.649000       0.830321
                                                         0.246000       0.000000

                          5       4    4px               4.516000       0.000000
                                                         1.712000       0.000000
                                                         0.649000       0.000000
                                                         0.246000       0.246950
                          5       4    4py               4.516000       0.000000
                                                         1.712000       0.000000
                                                         0.649000       0.000000
                                                         0.246000       0.246950
                          5       4    4pz               4.516000       0.000000
                                                         1.712000       0.000000
                                                         0.649000       0.000000
                                                         0.246000       0.246950

                          6       1    1fx3              0.274000       0.079964
                          6       1    1fx2y             0.274000       0.178804
                          6       1    1fx2z             0.274000       0.178804
                          6       1    1fxy2             0.274000       0.178804
                          6       1    1fxyz             0.274000       0.309698
                          6       1    1fxz2             0.274000       0.178804
                          6       1    1fy3              0.274000       0.079964
                          6       1    1fy2z             0.274000       0.178804
                          6       1    1fyz2             0.274000       0.178804
                          6       1    1fz3              0.274000       0.079964

                          7       1    1dx2              2.950000      10.929442
                                                         1.206000       0.000000
                                                         0.493000       0.000000
                          7       1    1dxy              2.950000      18.930349
                                                         1.206000       0.000000
                                                         0.493000       0.000000
                          7       1    1dxz              2.950000      18.930349
                                                         1.206000       0.000000
                                                         0.493000       0.000000
                          7       1    1dy2              2.950000      10.929442
                                                         1.206000       0.000000
                                                         0.493000       0.000000
                          7       1    1dyz              2.950000      18.930349
                                                         1.206000       0.000000
                                                         0.493000       0.000000
                          7       1    1dz2              2.950000      10.929442
                                                         1.206000       0.000000
                                                         0.493000       0.000000

                          7       2    2dx2              2.950000       0.000000
                                                         1.206000       2.284374
                                                         0.493000       0.000000
                          7       2    2dxy              2.950000       0.000000
                                                         1.206000       3.956652
                                                         0.493000       0.000000
                          7       2    2dxz              2.950000       0.000000
                                                         1.206000       3.956652
                                                         0.493000       0.000000
                          7       2    2dy2              2.950000       0.000000
                                                         1.206000       2.284374
                                                         0.493000       0.000000
                          7       2    2dyz              2.950000       0.000000
                                                         1.206000       3.956652
                                                         0.493000       0.000000
                          7       2    2dz2              2.950000       0.000000
                                                         1.206000       2.284374
                                                         0.493000       0.000000

                          7       3    3dx2              2.950000       0.000000
                                                         1.206000       0.000000
                                                         0.493000       0.477410
                          7       3    3dxy              2.950000       0.000000
                                                         1.206000       0.000000
                                                         0.493000       0.826898
                          7       3    3dxz              2.950000       0.000000
                                                         1.206000       0.000000
                                                         0.493000       0.826898
                          7       3    3dy2              2.950000       0.000000
                                                         1.206000       0.000000
                                                         0.493000       0.477410
                          7       3    3dyz              2.950000       0.000000
                                                         1.206000       0.000000
                                                         0.493000       0.826898
                          7       3    3dz2              2.950000       0.000000
                                                         1.206000       0.000000
                                                         0.493000       0.477410

                          8       1    1gx4              0.543000       0.207556
                          8       1    1gx3y             0.543000       0.549141
                          8       1    1gx3z             0.543000       0.549141
                          8       1    1gx2y2            0.543000       0.708938
                          8       1    1gx2yz            0.543000       1.227917
                          8       1    1gx2z2            0.543000       0.708938
                          8       1    1gxy3             0.543000       0.549141
                          8       1    1gxy2z            0.543000       1.227917
                          8       1    1gxyz2            0.543000       1.227917
                          8       1    1gxz3             0.543000       0.549141
                          8       1    1gy4              0.543000       0.207556
                          8       1    1gy3z             0.543000       0.549141
                          8       1    1gy2z2            0.543000       0.708938
                          8       1    1gyz3             0.543000       0.549141
                          8       1    1gz4              0.543000       0.207556

                          9       1    1fx3              2.506000      11.632200
                                                         0.875000       0.000000
                          9       1    1fx2y             2.506000      26.010389
                                                         0.875000       0.000000
                          9       1    1fx2z             2.506000      26.010389
                                                         0.875000       0.000000
                          9       1    1fxy2             2.506000      26.010389
                                                         0.875000       0.000000
                          9       1    1fxyz             2.506000      45.051316
                                                         0.875000       0.000000
                          9       1    1fxz2             2.506000      26.010389
                                                         0.875000       0.000000
                          9       1    1fy3              2.506000      11.632200
                                                         0.875000       0.000000
                          9       1    1fy2z             2.506000      26.010389
                                                         0.875000       0.000000
                          9       1    1fyz2             2.506000      26.010389
                                                         0.875000       0.000000
                          9       1    1fz3              2.506000      11.632200
                                                         0.875000       0.000000

                          9       2    2fx3              2.506000       0.000000
                                                         0.875000       1.090116
                          9       2    2fx2y             2.506000       0.000000
                                                         0.875000       2.437573
                          9       2    2fx2z             2.506000       0.000000
                                                         0.875000       2.437573
                          9       2    2fxy2             2.506000       0.000000
                                                         0.875000       2.437573
                          9       2    2fxyz             2.506000       0.000000
                                                         0.875000       4.222000
                          9       2    2fxz2             2.506000       0.000000
                                                         0.875000       2.437573
                          9       2    2fy3              2.506000       0.000000
                                                         0.875000       1.090116
                          9       2    2fy2z             2.506000       0.000000
                                                         0.875000       2.437573
                          9       2    2fyz2             2.506000       0.000000
                                                         0.875000       2.437573
                          9       2    2fz3              2.506000       0.000000
                                                         0.875000       1.090116

                         10       1    1gx4              2.358000      11.774186
                         10       1    1gx3y             2.358000      31.151567
                         10       1    1gx3z             2.358000      31.151567
                         10       1    1gx2y2            2.358000      40.216500
                         10       1    1gx2yz            2.358000      69.657021
                         10       1    1gx2z2            2.358000      40.216500
                         10       1    1gxy3             2.358000      31.151567
                         10       1    1gxy2z            2.358000      69.657021
                         10       1    1gxyz2            2.358000      69.657021
                         10       1    1gxz3             2.358000      31.151567
                         10       1    1gy4              2.358000      11.774186
                         10       1    1gy3z             2.358000      31.151567
                         10       1    1gy2z2            2.358000      40.216500
                         10       1    1gyz3             2.358000      31.151567
                         10       1    1gz4              2.358000      11.774186

     RI Auxiliary Basis Set                                    aug-cc-pV5Z-OPTRI

       Number of orbital shell sets:                                          17
       Number of orbital shells:                                              17
       Number of primitive Cartesian functions:                               17
       Number of Cartesian basis functions:                                  115
       Number of spherical basis functions:                                   81
       Norm type:                                                              2

       Normalised Cartesian orbitals:

                        Set   Shell   Orbital            Exponent    Coefficient

                          1       1    1s                0.306678       0.293712

                          2       1    1fx3              0.582788       0.436871
                          2       1    1fx2y             0.582788       0.976873
                          2       1    1fx2z             0.582788       0.976873
                          2       1    1fxy2             0.582788       0.976873
                          2       1    1fxyz             0.582788       1.691994
                          2       1    1fxz2             0.582788       0.976873
                          2       1    1fy3              0.582788       0.436871
                          2       1    1fy2z             0.582788       0.976873
                          2       1    1fyz2             0.582788       0.976873
                          2       1    1fz3              0.582788       0.436871

                          3       1    1dx2              0.740674       0.973323
                          3       1    1dxy              0.740674       1.685844
                          3       1    1dxz              0.740674       1.685844
                          3       1    1dy2              0.740674       0.973323
                          3       1    1dyz              0.740674       1.685844
                          3       1    1dz2              0.740674       0.973323

                          4       1    1s                0.854346       0.633338

                          5       1    1px               0.977704       1.385796
                          5       1    1py               0.977704       1.385796
                          5       1    1pz               0.977704       1.385796

                          6       1    1gx4              1.260673       2.104225
                          6       1    1gx3y             1.260673       5.567256
                          6       1    1gx3z             1.260673       5.567256
                          6       1    1gx2y2            1.260673       7.187297
                          6       1    1gx2yz            1.260673      12.448763
                          6       1    1gx2z2            1.260673       7.187297
                          6       1    1gxy3             1.260673       5.567256
                          6       1    1gxy2z            1.260673      12.448763
                          6       1    1gxyz2            1.260673      12.448763
                          6       1    1gxz3             1.260673       5.567256
                          6       1    1gy4              1.260673       2.104225
                          6       1    1gy3z             1.260673       5.567256
                          6       1    1gy2z2            1.260673       7.187297
                          6       1    1gyz3             1.260673       5.567256
                          6       1    1gz4              1.260673       2.104225

                          7       1    1fx3              1.313322       2.718252
                          7       1    1fx2y             1.313322       6.078196
                          7       1    1fx2z             1.313322       6.078196
                          7       1    1fxy2             1.313322       6.078196
                          7       1    1fxyz             1.313322      10.527744
                          7       1    1fxz2             1.313322       6.078196
                          7       1    1fy3              1.313322       2.718252
                          7       1    1fy2z             1.313322       6.078196
                          7       1    1fyz2             1.313322       6.078196
                          7       1    1fz3              1.313322       2.718252

                          8       1    1dx2              1.868623       4.915553
                          8       1    1dxy              1.868623       8.513988
                          8       1    1dxz              1.868623       8.513988
                          8       1    1dy2              1.868623       4.915553
                          8       1    1dyz              1.868623       8.513988
                          8       1    1dz2              1.868623       4.915553

                          9       1    1s                2.242991       1.306263

                         10       1    1hx5              2.510965      14.785170
                         10       1    1hx4y             2.510965      44.355509
                         10       1    1hx4z             2.510965      44.355509
                         10       1    1hx3y2            2.510965      67.754159
                         10       1    1hx3yz            2.510965     117.353645
                         10       1    1hx3z2            2.510965      67.754159
                         10       1    1hx2y3            2.510965      67.754159
                         10       1    1hx2y2z           2.510965     151.502904
                         10       1    1hx2yz2           2.510965     151.502904
                         10       1    1hx2z3            2.510965      67.754159
                         10       1    1hxy4             2.510965      44.355509
                         10       1    1hxy3z            2.510965     117.353645
                         10       1    1hxy2z2           2.510965     151.502904
                         10       1    1hxyz3            2.510965     117.353645
                         10       1    1hxz4             2.510965      44.355509
                         10       1    1hy5              2.510965      14.785170
                         10       1    1hy4z             2.510965      44.355509
                         10       1    1hy3z2            2.510965      67.754159
                         10       1    1hy2z3            2.510965      67.754159
                         10       1    1hyz4             2.510965      44.355509
                         10       1    1hz5              2.510965      14.785170

                         11       1    1px               2.624145       4.760744
                         11       1    1py               2.624145       4.760744
                         11       1    1pz               2.624145       4.760744

                         12       1    1gx4              3.525409      35.584558
                         12       1    1gx3y             3.525409      94.147891
                         12       1    1gx3z             3.525409      94.147891
                         12       1    1gx2y2            3.525409     121.544404
                         12       1    1gx2yz            3.525409     210.521084
                         12       1    1gx2z2            3.525409     121.544404
                         12       1    1gxy3             3.525409      94.147891
                         12       1    1gxy2z            3.525409     210.521084
                         12       1    1gxyz2            3.525409     210.521084
                         12       1    1gxz3             3.525409      94.147891
                         12       1    1gy4              3.525409      35.584558
                         12       1    1gy3z             3.525409      94.147891
                         12       1    1gy2z2            3.525409     121.544404
                         12       1    1gyz3             3.525409      94.147891
                         12       1    1gz4              3.525409      35.584558

                         13       1    1fx3              3.758818      28.961421
                         13       1    1fx2y             3.758818      64.759707
                         13       1    1fx2z             3.758818      64.759707
                         13       1    1fxy2             3.758818      64.759707
                         13       1    1fxyz             3.758818     112.167102
                         13       1    1fxz2             3.758818      64.759707
                         13       1    1fy3              3.758818      28.961421
                         13       1    1fy2z             3.758818      64.759707
                         13       1    1fyz2             3.758818      64.759707
                         13       1    1fz3              3.758818      28.961421

                         14       1    1dx2              4.580832      23.608158
                         14       1    1dxy              4.580832      40.890528
                         14       1    1dxz              4.580832      40.890528
                         14       1    1dy2              4.580832      23.608158
                         14       1    1dyz              4.580832      40.890528
                         14       1    1dz2              4.580832      23.608158

                         15       1    1px               6.794656      15.636856
                         15       1    1py               6.794656      15.636856
                         15       1    1pz               6.794656      15.636856

                         16       1    1s                7.257089       3.151243

                         17       1    1px              22.632735      70.365761
                         17       1    1py              22.632735      70.365761
                         17       1    1pz              22.632735      70.365761

       Atomic covalent radius [Angstrom]:                                  0.320

       Atomic van der Waals radius [Angstrom]:                             1.090

     The atoms of this atomic kind are PAW atoms (GAPW):
       Hard Gaussian function radius:                                      1.200
       Rho0 radius:                                                        1.200
       Maximum GTO radius used for PAW projector construction:            24.566

     GAPW Soft Basis Set                                        aug-cc-pV5Z_soft

       Number of orbital shell sets:                                          10
       Number of orbital shells:                                              20
       Number of primitive Cartesian functions:                               20
       Number of Cartesian basis functions:                                  105
       Number of spherical basis functions:                                   80
       Norm type:                                                              2

       Normalised Cartesian orbitals:

                        Set   Shell   Orbital            Exponent    Coefficient

                          1       1    1s                0.020700       0.038894

                          2       1    1s                3.905000       0.000000
                                                         1.283000       0.859172
                                                         0.465500       0.000000
                                                         0.181100       0.000000
                                                         0.072790       0.000000

                          2       2    2s                3.905000       0.000000
                                                         1.283000       0.000000
                                                         0.465500       0.401652
                                                         0.181100       0.000000
                                                         0.072790       0.000000

                          2       3    3s                3.905000       0.088850
                                                         1.283000       0.122259
                                                         0.465500       0.132938
                                                         0.181100       0.086318
                                                         0.072790       0.017622

                          2       4    4s                3.905000       0.000000
                                                         1.283000       0.000000
                                                         0.465500       0.000000
                                                         0.181100       0.197856
                                                         0.072790       0.000000

                          2       5    5s                3.905000       0.000000
                                                         1.283000       0.000000
                                                         0.465500       0.000000
                                                         0.181100       0.000000
                                                         0.072790       0.099877

                          3       1    1px               0.074400       0.055387
                          3       1    1py               0.074400       0.055387
                          3       1    1pz               0.074400       0.055387

                          4       1    1dx2              0.156000       0.063735
                          4       1    1dxy              0.156000       0.110392
                          4       1    1dxz              0.156000       0.110392
                          4       1    1dy2              0.156000       0.063735
                          4       1    1dyz              0.156000       0.110392
                          4       1    1dz2              0.156000       0.063735

                          5       1    1px               4.516000       9.383881
                                                         1.712000       0.000000
                                                         0.649000       0.000000
                                                         0.246000       0.000000
                          5       1    1py               4.516000       9.383881
                                                         1.712000       0.000000
                                                         0.649000       0.000000
                                                         0.246000       0.000000
                          5       1    1pz               4.516000       9.383881
                                                         1.712000       0.000000
                                                         0.649000       0.000000
                                                         0.246000       0.000000

                          5       2    2px               4.516000       0.000000
                                                         1.712000       2.791385
                                                         0.649000       0.000000
                                                         0.246000       0.000000
                          5       2    2py               4.516000       0.000000
                                                         1.712000       2.791385
                                                         0.649000       0.000000
                                                         0.246000       0.000000
                          5       2    2pz               4.516000       0.000000
                                                         1.712000       2.791385
                                                         0.649000       0.000000
                                                         0.246000       0.000000

                          5       3    3px               4.516000       0.000000
                                                         1.712000       0.000000
                                                         0.649000       0.830321
                                                         0.246000       0.000000
                          5       3    3py               4.516000       0.000000
                                                         1.712000       0.000000
                                                         0.649000       0.830321
                                                         0.246000       0.000000
                          5       3    3pz               4.516000       0.000000
                                                         1.712000       0.000000
                                                         0.649000       0.830321
                                                         0.246000       0.000000

                          5       4    4px               4.516000       0.000000
                                                         1.712000       0.000000
                                                         0.649000       0.000000
                                                         0.246000       0.246950
                          5       4    4py               4.516000       0.000000
                                                         1.712000       0.000000
                                                         0.649000       0.000000
                                                         0.246000       0.246950
                          5       4    4pz               4.516000       0.000000
                                                         1.712000       0.000000
                                                         0.649000       0.000000
                                                         0.246000       0.246950

                          6       1    1fx3              0.274000       0.079964
                          6       1    1fx2y             0.274000       0.178804
                          6       1    1fx2z             0.274000       0.178804
                          6       1    1fxy2             0.274000       0.178804
                          6       1    1fxyz             0.274000       0.309698
                          6       1    1fxz2             0.274000       0.178804
                          6       1    1fy3              0.274000       0.079964
                          6       1    1fy2z             0.274000       0.178804
                          6       1    1fyz2             0.274000       0.178804
                          6       1    1fz3              0.274000       0.079964

                          7       1    1dx2              2.950000      10.929442
                                                         1.206000       0.000000
                                                         0.493000       0.000000
                          7       1    1dxy              2.950000      18.930349
                                                         1.206000       0.000000
                                                         0.493000       0.000000
                          7       1    1dxz              2.950000      18.930349
                                                         1.206000       0.000000
                                                         0.493000       0.000000
                          7       1    1dy2              2.950000      10.929442
                                                         1.206000       0.000000
                                                         0.493000       0.000000
                          7       1    1dyz              2.950000      18.930349
                                                         1.206000       0.000000
                                                         0.493000       0.000000
                          7       1    1dz2              2.950000      10.929442
                                                         1.206000       0.000000
                                                         0.493000       0.000000

                          7       2    2dx2              2.950000       0.000000
                                                         1.206000       2.284374
                                                         0.493000       0.000000
                          7       2    2dxy              2.950000       0.000000
                                                         1.206000       3.956652
                                                         0.493000       0.000000
                          7       2    2dxz              2.950000       0.000000
                                                         1.206000       3.956652
                                                         0.493000       0.000000
                          7       2    2dy2              2.950000       0.000000
                                                         1.206000       2.284374
                                                         0.493000       0.000000
                          7       2    2dyz              2.950000       0.000000
                                                         1.206000       3.956652
                                                         0.493000       0.000000
                          7       2    2dz2              2.950000       0.000000
                                                         1.206000       2.284374
                                                         0.493000       0.000000

                          7       3    3dx2              2.950000       0.000000
                                                         1.206000       0.000000
                                                         0.493000       0.477410
                          7       3    3dxy              2.950000       0.000000
                                                         1.206000       0.000000
                                                         0.493000       0.826898
                          7       3    3dxz              2.950000       0.000000
                                                         1.206000       0.000000
                                                         0.493000       0.826898
                          7       3    3dy2              2.950000       0.000000
                                                         1.206000       0.000000
                                                         0.493000       0.477410
                          7       3    3dyz              2.950000       0.000000
                                                         1.206000       0.000000
                                                         0.493000       0.826898
                          7       3    3dz2              2.950000       0.000000
                                                         1.206000       0.000000
                                                         0.493000       0.477410

                          8       1    1gx4              0.543000       0.207556
                          8       1    1gx3y             0.543000       0.549141
                          8       1    1gx3z             0.543000       0.549141
                          8       1    1gx2y2            0.543000       0.708938
                          8       1    1gx2yz            0.543000       1.227917
                          8       1    1gx2z2            0.543000       0.708938
                          8       1    1gxy3             0.543000       0.549141
                          8       1    1gxy2z            0.543000       1.227917
                          8       1    1gxyz2            0.543000       1.227917
                          8       1    1gxz3             0.543000       0.549141
                          8       1    1gy4              0.543000       0.207556
                          8       1    1gy3z             0.543000       0.549141
                          8       1    1gy2z2            0.543000       0.708938
                          8       1    1gyz3             0.543000       0.549141
                          8       1    1gz4              0.543000       0.207556

                          9       1    1fx3              2.506000      11.632200
                                                         0.875000       0.000000
                          9       1    1fx2y             2.506000      26.010389
                                                         0.875000       0.000000
                          9       1    1fx2z             2.506000      26.010389
                                                         0.875000       0.000000
                          9       1    1fxy2             2.506000      26.010389
                                                         0.875000       0.000000
                          9       1    1fxyz             2.506000      45.051316
                                                         0.875000       0.000000
                          9       1    1fxz2             2.506000      26.010389
                                                         0.875000       0.000000
                          9       1    1fy3              2.506000      11.632200
                                                         0.875000       0.000000
                          9       1    1fy2z             2.506000      26.010389
                                                         0.875000       0.000000
                          9       1    1fyz2             2.506000      26.010389
                                                         0.875000       0.000000
                          9       1    1fz3              2.506000      11.632200
                                                         0.875000       0.000000

                          9       2    2fx3              2.506000       0.000000
                                                         0.875000       1.090116
                          9       2    2fx2y             2.506000       0.000000
                                                         0.875000       2.437573
                          9       2    2fx2z             2.506000       0.000000
                                                         0.875000       2.437573
                          9       2    2fxy2             2.506000       0.000000
                                                         0.875000       2.437573
                          9       2    2fxyz             2.506000       0.000000
                                                         0.875000       4.222000
                          9       2    2fxz2             2.506000       0.000000
                                                         0.875000       2.437573
                          9       2    2fy3              2.506000       0.000000
                                                         0.875000       1.090116
                          9       2    2fy2z             2.506000       0.000000
                                                         0.875000       2.437573
                          9       2    2fyz2             2.506000       0.000000
                                                         0.875000       2.437573
                          9       2    2fz3              2.506000       0.000000
                                                         0.875000       1.090116

                         10       1    1gx4              2.358000      11.774186
                         10       1    1gx3y             2.358000      31.151567
                         10       1    1gx3z             2.358000      31.151567
                         10       1    1gx2y2            2.358000      40.216500
                         10       1    1gx2yz            2.358000      69.657021
                         10       1    1gx2z2            2.358000      40.216500
                         10       1    1gxy3             2.358000      31.151567
                         10       1    1gxy2z            2.358000      69.657021
                         10       1    1gxyz2            2.358000      69.657021
                         10       1    1gxz3             2.358000      31.151567
                         10       1    1gy4              2.358000      11.774186
                         10       1    1gy3z             2.358000      31.151567
                         10       1    1gy2z2            2.358000      40.216500
                         10       1    1gyz3             2.358000      31.151567
                         10       1    1gz4              2.358000      11.774186

     AE Potential information for                                            ALL

       Description:                                       All-electron potential
                                          Krack, Parrinello, PCCP 2, 2105 (2000)

       Gaussian exponent of the core charge distribution:              12.500000
       Electronic configuration (s p d ...):                           1   0   0

  2. Atomic kind: C                                     Number of atoms:       6

     Orbital Basis Set                                               aug-cc-pV5Z

       Number of orbital shell sets:                                          12
       Number of orbital shells:                                              27
       Number of primitive Cartesian functions:                               38
       Number of Cartesian basis functions:                                  182
       Number of spherical basis functions:                                  127
       Norm type:                                                              2

       Normalised Cartesian orbitals:

                        Set   Shell   Orbital            Exponent    Coefficient

                          1       1    1px               0.027200       0.015745
                          1       1    1py               0.027200       0.015745
                          1       1    1pz               0.027200       0.015745

                          2       1    1s                0.039400       0.063028

                          3       1    1dx2              0.070100       0.015719
                          3       1    1dxy              0.070100       0.027226
                          3       1    1dxz              0.070100       0.027226
                          3       1    1dy2              0.070100       0.015719
                          3       1    1dyz              0.070100       0.027226
                          3       1    1dz2              0.070100       0.015719

                          4       1    1px             101.800000       0.000000
                                                        24.040000       0.000000
                                                         7.571000       0.000000
                                                         2.732000       0.000000
                                                         1.085000       1.578437
                                                         0.449600       0.000000
                                                         0.187600       0.000000
                                                         0.076060       0.000000
                          4       1    1py             101.800000       0.000000
                                                        24.040000       0.000000
                                                         7.571000       0.000000
                                                         2.732000       0.000000
                                                         1.085000       1.578437
                                                         0.449600       0.000000
                                                         0.187600       0.000000
                                                         0.076060       0.000000
                          4       1    1pz             101.800000       0.000000
                                                        24.040000       0.000000
                                                         7.571000       0.000000
                                                         2.732000       0.000000
                                                         1.085000       1.578437
                                                         0.449600       0.000000
                                                         0.187600       0.000000
                                                         0.076060       0.000000

                          4       2    2px             101.800000       0.000000
                                                        24.040000       0.000000
                                                         7.571000       0.000000
                                                         2.732000       0.000000
                                                         1.085000       0.000000
                                                         0.449600       0.524775
                                                         0.187600       0.000000
                                                         0.076060       0.000000
                          4       2    2py             101.800000       0.000000
                                                        24.040000       0.000000
                                                         7.571000       0.000000
                                                         2.732000       0.000000
                                                         1.085000       0.000000
                                                         0.449600       0.524775
                                                         0.187600       0.000000
                                                         0.076060       0.000000
                          4       2    2pz             101.800000       0.000000
                                                        24.040000       0.000000
                                                         7.571000       0.000000
                                                         2.732000       0.000000
                                                         1.085000       0.000000
                                                         0.449600       0.524775
                                                         0.187600       0.000000
                                                         0.076060       0.000000

                          4       3    3px             101.800000       0.410679
                                                        24.040000       0.529315
                                                         7.571000       0.566912
                                                         2.732000       0.520714
                                                         1.085000       0.381402
                                                         0.449600       0.195188
                                                         0.187600       0.062335
                                                         0.076060       0.007491
                          4       3    3py             101.800000       0.410679
                                                        24.040000       0.529315
                                                         7.571000       0.566912
                                                         2.732000       0.520714
                                                         1.085000       0.381402
                                                         0.449600       0.195188
                                                         0.187600       0.062335
                                                         0.076060       0.007491
                          4       3    3pz             101.800000       0.410679
                                                        24.040000       0.529315
                                                         7.571000       0.566912
                                                         2.732000       0.520714
                                                         1.085000       0.381402
                                                         0.449600       0.195188
                                                         0.187600       0.062335
                                                         0.076060       0.007491

                          4       4    4px             101.800000       0.000000
                                                        24.040000       0.000000
                                                         7.571000       0.000000
                                                         2.732000       0.000000
                                                         1.085000       0.000000
                                                         0.449600       0.000000
                                                         0.187600       0.175987
                                                         0.076060       0.000000
                          4       4    4py             101.800000       0.000000
                                                        24.040000       0.000000
                                                         7.571000       0.000000
                                                         2.732000       0.000000
                                                         1.085000       0.000000
                                                         0.449600       0.000000
                                                         0.187600       0.175987
                                                         0.076060       0.000000
                          4       4    4pz             101.800000       0.000000
                                                        24.040000       0.000000
                                                         7.571000       0.000000
                                                         2.732000       0.000000
                                                         1.085000       0.000000
                                                         0.449600       0.000000
                                                         0.187600       0.175987
                                                         0.076060       0.000000

                          4       5    5px             101.800000       0.000000
                                                        24.040000       0.000000
                                                         7.571000       0.000000
                                                         2.732000       0.000000
                                                         1.085000       0.000000
                                                         0.449600       0.000000
                                                         0.187600       0.000000
                                                         0.076060       0.056936
                          4       5    5py             101.800000       0.000000
                                                        24.040000       0.000000
                                                         7.571000       0.000000
                                                         2.732000       0.000000
                                                         1.085000       0.000000
                                                         0.449600       0.000000
                                                         0.187600       0.000000
                                                         0.076060       0.056936
                          4       5    5pz             101.800000       0.000000
                                                        24.040000       0.000000
                                                         7.571000       0.000000
                                                         2.732000       0.000000
                                                         1.085000       0.000000
                                                         0.449600       0.000000
                                                         0.187600       0.000000
                                                         0.076060       0.056936

                          5       1    1s            96770.000000       0.097759
                                                     14500.000000       0.178933
                                                      3300.000000       0.310310
                                                       935.800000       0.504412
                                                       306.200000       0.775182
                                                       111.300000       1.106343
                                                        43.900000       1.416119
                                                        18.400000       1.521197
                                                         8.054000       1.222561
                                                         3.637000       0.551732
                                                         1.656000       0.080804
                                                         0.633300       0.001180
                                                         0.254500       0.000129
                                                         0.101900       0.000004

                          5       2    2s            96770.000000       0.000000
                                                     14500.000000       0.000000
                                                      3300.000000       0.000000
                                                       935.800000       0.000000
                                                       306.200000       0.000000
                                                       111.300000       0.000000
                                                        43.900000       0.000000
                                                        18.400000       0.000000
                                                         8.054000       0.000000
                                                         3.637000       0.000000
                                                         1.656000       1.040412
                                                         0.633300       0.000000
                                                         0.254500       0.000000
                                                         0.101900       0.000000

                          5       3    3s            96770.000000       0.000000
                                                     14500.000000       0.000000
                                                      3300.000000       0.000000
                                                       935.800000       0.000000
                                                       306.200000       0.000000
                                                       111.300000       0.000000
                                                        43.900000       0.000000
                                                        18.400000       0.000000
                                                         8.054000       0.000000
                                                         3.637000       0.000000
                                                         1.656000       0.000000
                                                         0.633300       0.505961
                                                         0.254500       0.000000
                                                         0.101900       0.000000

                          5       4    4s            96770.000000       0.000000
                                                     14500.000000       0.000000
                                                      3300.000000       0.000000
                                                       935.800000       0.000000
                                                       306.200000       0.000000
                                                       111.300000       0.000000
                                                        43.900000       0.000000
                                                        18.400000       0.000000
                                                         8.054000       0.000000
                                                         3.637000       0.000000
                                                         1.656000       0.000000
                                                         0.633300       0.000000
                                                         0.254500       0.255374
                                                         0.101900       0.000000

[...]
 Robust Periodic Hartree-Fock Exchange for Large-Scale Simulations Using 
 Gaussian Basis Sets.
 https://doi.org/10.1021/ct900494g

 M. Guidon, F. Schiffmann, J. Hutter, J. VandeVondele.
 J. Chem. Phys. 128, 214104 (2008).
 Ab initio molecular dynamics using hybrid density functionals.
 https://doi.org/10.1063/1.2931945

 L. Genovese, T. Deutsch, S. Goedecker.
 J. Chem. Phys. 127, 054704 (2007).
 Efficient and accurate three-dimensional Poisson solver for surface problems.
 https://doi.org/10.1063/1.2754685

 J. VandeVondele, J. Hutter.
 J. Chem. Phys. 127, 114105 (2007).
 Gaussian basis sets for accurate calculations on molecular systems in gas and 
 condensed phases.
 https://doi.org/10.1063/1.2770708

 L. Genovese, T. Deutsch, A. Neelov, S. Goedecker, G. Beylkin.
 J. Chem. Phys. 125, 074105 (2006).
 Efficient solution of Poisson's equation with free boundary conditions.
 https://doi.org/10.1063/1.2335442

 M. Iannuzzi, T. Chassaing, T. Wallman, J. Hutter.
 CHIMIA 59, 499-503 (2005).
 Ground and excited state density functional calculations with the Gaussian and 
 augmented-plane-wave method.
 https://doi.org/10.2533/000942905777676164

 M. Frigo, S. G. Johnson.
 Proc. IEEE 93, 216-231 (2005).
 The design and implementation of FFTW3.
 https://doi.org/10.1109/JPROC.2004.840301

 R. L. Martin.
 J. Chem. Phys. 118, 4775-4777 (2003).
 Natural transition orbitals.
 https://doi.org/10.1063/1.1558471

 M. Krack, M. Parrinello.
 Phys. Chem. Chem. Phys. 2, 2105-2112 (2000).
 All-electron ab-initio molecular dynamics.
 https://doi.org/10.1039/b001167n

 G. Lippert, J. Hutter, M. Parrinello.
 Theor. Chem. Acc. 103, 124-140 (1999).
 The Gaussian and augmented-plane-wave density functional method for ab initio 
 molecular dynamics simulations.
 https://doi.org/10.1007/s002140050523

 J. P. Perdew, K. Burke, M. Ernzerhof.
 Phys. Rev. Lett. 77, 3865-3868 (1996).
 Generalized gradient approximation made simple.
 https://doi.org/10.1103/PhysRevLett.77.3865


 -------------------------------------------------------------------------------
 -                                                                             -
 -                                T I M I N G                                  -
 -                                                                             -
 -------------------------------------------------------------------------------
 SUBROUTINE                       CALLS  ASD         SELF TIME        TOTAL TIME
                                MAXIMUM       AVERAGE  MAXIMUM  AVERAGE  MAXIMUM
 CP2K                                 1  1.0    0.365    0.484 2438.051 2438.052
 qs_energies                          1  2.0    0.000    0.001 2435.261 2435.262
 integrate_four_center              480  9.8   30.287   42.278 1861.070 1862.931
 integrate_four_center_main         480 10.8   47.407  135.609 1220.266 1406.464
 integrate_four_center_bin       191651 11.9 1172.859 1362.131 1172.859 1362.131
 qs_energies_properties               1  3.0    0.000    0.000 1356.989 1356.990
 tddfpt                               1  4.0    0.000    0.001 1356.989 1356.990
 tddfpt_energies                      1  5.0    0.000    0.000 1356.343 1356.344
 tddfpt_davidson_solver               1  6.0    0.002    0.003 1342.902 1342.902
 tddfpt_compute_Aop_evects           10  7.0    0.000    0.000 1334.268 1334.268
 scf_env_do_scf                       1  3.0    0.000    0.000 1070.905 1070.973
 scf_env_do_scf_inner_loop           80  4.0    0.002    0.005 1070.905 1070.973
 qs_ks_update_qs_env                 80  5.0    0.001    0.001 1002.914 1003.409
 rebuild_ks_matrix                   80  6.0    0.000    0.000 1002.896 1003.391
 qs_ks_build_kohn_sham_matrix        80  7.0    0.011    0.012 1002.896 1003.391
 tddfpt_apply_hfx                    10  8.0    0.005    0.006  978.086  978.087
 tddft_hfx_matrix                   400  9.0    0.013    0.015  964.283  965.871
 hfx_ks_matrix                       80  8.0    0.003    0.004  896.809  897.127
 mp_sync                           5912 13.5  350.001  483.144  350.001  483.144
 fhxc_kernel                         10  8.0    0.008    0.010  351.824  351.825
 calc_screening_functions             1 10.0  141.202  145.739  152.037  156.844
 mp_waitall_1                   1148556 12.9   99.953  142.110   99.953  142.110
 qs_rho_update_rho_low              282  7.8    0.004    0.004  113.262  113.304
 prepare_gapw_den                   281  8.7    0.009    0.012  110.921  111.029
 tddfpt_apply_coulomb               200  9.0    0.003    0.004  102.819  103.894
 integrate_v_rspace                 280  9.0    0.007    0.009  101.568  102.037
 mp_alltoall_d11v                 17652 11.6   96.704  100.594   96.704  100.594
 calculate_rho_elec                 282  8.8    0.263    0.279   84.323   84.365
 rs_gather_matrices                 280 10.0    0.052    0.259   81.170   83.861
 grid_integrate_task_list           280 10.0    2.640   81.216    2.640   81.216
 calculate_rho_atom                1124  9.7   21.349   80.306   21.349   80.307
 density_rs2pw                      282  9.8    0.013    0.015   65.549   71.252
 pw_poisson_solve                   280  9.4    0.911    1.058   70.253   71.247
 fft_wrap_pw1pw2                   5694 11.1    0.058    0.070   68.585   70.093
 transfer_rs2pw                    1410 10.8    0.026    0.034   63.202   68.895
 fft_wrap_pw1pw2_250               4008 12.1    0.824    0.891   65.057   66.685
 mp_sum_dv                        51005  8.8   61.007   64.903   61.007   64.903
 fft3d_pb                          4008 13.1    2.990    3.469   63.127   64.776
 mp_sum_dm                        16997 10.0   63.359   64.280   63.359   64.280
 mp_alltoall_z22v                  9702 15.1   60.038   62.254   60.038   62.254
 grid_collocate_task_list           282  9.8   15.054   59.831   15.054   59.831
 gaVxcgb_GC                         560  9.7    1.229   59.036    1.229   59.036
 mp_waitany                       26990 12.8   39.718   56.589   39.718   56.589
 transfer_rs2pw_250                 564 11.8    0.980    1.136   38.881   54.656
 integrate_four_center_dist_KS      480 10.8    1.755    1.913   53.710   53.759
 cube_transpose_1                  2884 13.8    0.197    0.261   45.047   51.757
 cube_transpose_3                  2044 13.7    0.200    0.280    7.941   50.104
 integrate_vhg0_rspace              280  9.4   11.426   12.352   49.204   49.573
 calculate_xc_2nd_deriv_atom        200  9.0    0.118    4.374    1.022   46.806
 integrate_four_center_getP         480 10.8    2.616    2.746   46.386   46.639
 transfer_rs2pw_90                  282 11.8    0.281    0.349   11.691   44.145
 mp_isendrecv_dv                 776720 12.3   13.051   41.970   13.051   41.970
 cp_fm_syevd                        133  7.2    0.001    0.002   36.630   36.668
 cp_fm_redistribute_end             133  8.2   18.280   36.375   18.309   36.386
 cp_fm_syevd_base                   133  8.2   18.027   36.102   18.027   36.102
 qs_scf_new_mos                      80  5.0    0.001    0.001   33.148   33.304
 cp_dbcsr_sm_fm_multiply           1246  8.6    0.033    0.039   28.493   30.924
 eigensolver_symm                    80  6.0    0.004    0.005   30.370   30.404
 sum_up_and_integrate                80  8.0    0.001    0.001   29.378   29.838
 calculate_rho_atom_coeff           282  8.8    0.948    2.169   28.935   28.937
 mp_sum_d                         17807  7.2   25.979   28.745   25.979   28.745
 calculate_rho0_atom               1124  9.7   25.706   27.918   25.706   27.918
 dbcsr_complete_redistribute       4159 10.5    0.294    0.558   20.640   23.061
 powell_optimize                7092141 11.0   17.704   18.798   17.704   18.798
 potential_pw2rs                    280 10.0    0.021    0.023   17.750   18.194
 calculate_vxc_atom                  80  8.0    0.064    0.905   17.869   17.870
 copy_fm_to_dbcsr                  2807  9.6    0.016    0.018   15.024   17.435
 transfer_pw2rs                    1401 10.9    0.015    0.018   16.457   17.232
 ps_wavelet_solve                   280 10.4   11.301   13.889   16.850   17.203
 copy_dbcsr_to_fm                  1350  9.3    0.032    0.035   12.598   14.143
 mp_alltoall_d54                    280 11.4    3.660   13.026    3.660   13.026
 tddfpt_print_nto_analysis            1  6.0    0.003    0.004   12.121   12.122
 cp_fm_geeig                         20  7.0    0.001    0.001   10.726   10.732
 transfer_rs2pw_30                  282 11.8    3.236    3.653    9.191   10.259
 calc_pair_dist_radii                 1 10.0    2.960    3.064    9.829   10.126
 dbcsr_multiply_generic            1726 10.3    0.090    0.109    8.705    9.993
 mp_sum_l                          6570 10.6    5.458    9.603    5.458    9.603
 integrate_four_center_load         480 10.8    0.002    0.003    5.250    9.389
 hfx_load_balance                     1 11.0    0.000    0.000    5.248    9.388
 mp_alltoall_i22                   5510 11.4    6.548    9.357    6.548    9.357
 hfx_load_balance_range               1 12.0    0.000    0.003    5.008    9.147
 mp_alltoall_i11v                 13828 11.5    8.933    8.946    8.933    8.946
 mp_sendrecv_dv                  288204 12.8    8.520    8.798    8.520    8.798
 dbcsr_desymmetrize_deep           1351 10.3    0.042    0.065    6.791    8.331
 cp_dbcsr_sm_fm_multiply_core      1246  9.6    0.004    0.005    6.645    7.914
 xc_pw_derive                      1683 11.0    0.007    0.008    7.711    7.851
 multiply_cannon                   1726 11.3    0.267    0.278    5.951    7.299
 transfer_pw2rs_30                  280 12.0    2.922    3.136    6.817    7.205
 tddfpt_apply_xc_analytic           200  9.0    0.019    0.022    6.513    6.566
 multiply_cannon_loop              1726 12.3    0.490    0.605    5.139    6.399
 qs_energies_init_hamiltonians        1  3.0    0.000    0.000    6.381    6.381
 build_core_hamiltonian_matrix        1  4.0    0.000    0.000    6.347    6.347
 overlap_condnum                      1  5.0    0.000    0.000    6.294    6.340
 transfer_pw2rs_250                 561 11.7    0.844    0.927    4.783    5.997
 arnoldi_conjugate_gradient           5  6.0    0.068    0.085    5.708    5.709
 Vh_1c_gg_integrals                 280  9.4    0.171    5.386    5.396    5.430
 xc_pw_divergence                   280 10.7    0.003    0.004    5.090    5.225
 update_ks_atom                     280  8.7    0.803    2.608    3.442    5.158
 put_rho0_on_grid                   281  9.7    0.317    0.491    4.938    5.047
 tddfpt_orthonormalize_psi1_psi      11  6.9    0.030    0.033    4.819    4.823
 cube_transpose_2                  2810 14.4    0.172    0.222    4.091    4.817
 multiply_cannon_metrocomm3       55232 13.3    0.172    0.177    2.329    4.787
 cp_dbcsr_plus_fm_fm_t              280  8.4    0.005    0.006    4.366    4.489
 tddfpt_apply_energy_diff            10  8.0    0.001    0.002    4.357    4.358
 cube_transpose_4                  1964 14.6    0.182    0.216    3.716    4.188
 transfer_rs2pw_10                  282 11.8    0.848    0.945    3.413    4.074
 multiply_cannon_metrocomm1       55232 13.3    0.093    0.096    1.144    3.843
 xc_calc_2nd_deriv_analytical      1000 10.1    0.127    0.201    3.708    3.762
 tddfpt_compute_residual_vects        9  7.0    0.001    0.002    3.623    3.624
 fft3d_ps                          1686 12.9    0.191    0.323    3.377    3.613
 dbcsr_sym_matrix_vector_mult     10015  7.0    0.161    0.177    3.088    3.453
 rs_scatter_matrices                282  9.8    0.008    0.023    3.278    3.415
 hybrid_alltoall_any               4803 13.5    0.061    0.164    2.804    3.090
 qs_vxc_create                       80  8.0    0.001    0.001    3.056    3.057
 xc_vxc_pw_create                    80  9.0    0.082    0.086    3.055    3.056
 parallel_gemm_fm                  1841  8.3    0.003    0.003    2.877    2.948
 parallel_gemm_fm_gemm             1841  9.3    0.003    0.003    2.875    2.945
 cp_fm_gemm                        1841 10.3    2.872    2.943    2.872    2.943
 mp_isend_dm3                     13494 12.8    0.906    2.887    0.906    2.887
 transfer_pw2rs_10                  280 12.0    0.832    0.862    2.593    2.831
 mp_alltoall_d45                    281 11.4    1.874    2.796    1.874    2.796
 mp_irecv_dm3                     13494 12.8    0.631    2.742    0.631    2.742
 mp_bcast_dm                      11200  9.7    2.639    2.694    2.639    2.694
 transfer_pw2rs_90                  280 12.0    0.227    0.251    2.249    2.667
 dbcsr_add_d                      15085  7.0    0.014    0.016    0.242    2.410
 dbcsr_add_anytype                15085  8.0    0.018    0.234    0.228    2.393
 make_m2s                          3452 11.3    0.071    0.089    1.930    2.259
 multiply_cannon_metrocomm4       53506 13.3    0.162    0.172    0.500    2.253
 gspace_mixing                       79  5.0    0.073    0.078    2.095    2.096
 make_images                       3452 12.3    0.646    0.803    1.745    2.030
 mp_irecv_dv                     122760 14.2    0.251    2.001    0.251    2.001
 fft_wrap_pw1pw2_90                 562 11.9    0.030    0.083    1.728    1.922
 dbcsr_finalize                   23087 11.3    0.070    0.535    0.458    1.863
 dbcsr_rep_row_to_rep_col_vec     10015  8.0    0.058    0.078    0.738    1.738
 broyden_mixing                      79  6.0    1.465    1.637    1.615    1.661
 cp_fm_triangular_multiply           60  8.0    1.603    1.609    1.603    1.609
 multiply_cannon_multrec          55232 13.3    0.362    1.574    0.371    1.585
 create_qs_kind_set                   1  2.0    0.000    0.000    1.568    1.569
 read_qs_kind                         4  3.0    0.880    0.896    1.568    1.569
 cp2k_distribution_to_z_slices      280 10.4    0.554    0.590    1.504    1.568
 calculate_dm_sparse                 80  6.0    0.001    0.001    1.478    1.556
 xc_rho_set_and_dset_create          81 10.0    0.039    0.042    1.405    1.496
 dbcsr_col_vec_to_rep_row         10015  8.0    0.074    0.095    1.025    1.345
 cp_fm_symm                          80  7.0    1.103    1.126    1.103    1.126
 yz_to_xz                           840 14.0    0.124    0.193    0.993    1.123
 mp_bcast_dv                      10148  9.0    0.590    1.061    0.590    1.061
 fft_wrap_pw1pw2_30                 562 11.9    0.008    0.046    0.997    1.038
 cp_fm_triangular_invert             20  8.0    1.037    1.038    1.037    1.038
 cp_fm_cholesky_decompose            21  8.0    1.000    1.001    1.000    1.001
 dbcsr_merge_all                  21211 12.3    0.179    0.710    0.260    0.952
 xz_to_yz                           846 13.8    0.059    0.126    0.795    0.911
 init_scf_run                         1  3.0    0.000    0.000    0.880    0.880
 rs_grid_zero                      1403 11.9    0.765    0.862    0.765    0.862
 mp_isend_dv                     125206 14.2    0.277    0.850    0.277    0.850
 dbcsr_sym_matrix_vector_mult_l   10015  8.0    0.165    0.718    0.280    0.831
 tddfpt_construct_ground_state_       1  6.0    0.000    0.000    0.821    0.821
 cp_fm_trace_a1b1t1_aa            20310  8.0    0.125    0.143    0.798    0.807
 dbcsr_iterator_start            145121  9.4    0.358    0.630    0.395    0.775
 fft_wrap_pw1pw2_10                 562 11.9    0.003    0.029    0.745    0.754
 mp_rank_compare                   1686 13.9    0.707    0.741    0.707    0.741
 make_images_sizes                 3452 13.3    0.004    0.005    0.662    0.706
 mp_alltoall_i44                   3452 14.3    0.657    0.702    0.657    0.702
 parser_read_line                187305  4.0    0.063    0.074    0.688    0.698
 pw_scatter_p                      2884 12.8    0.534    0.680    0.534    0.680
 parser_read_line_low               207  5.0    0.060    0.268    0.626    0.638
 broadcast_input_information        207  6.0    0.144    0.160    0.566    0.598
 qs_init_subsys                       1  2.0    0.011    0.016    0.592    0.592
 pw_integral_ab_c1d_c1d_gs          280 10.4    0.358    0.379    0.527    0.591
 make_images_data                  3452 13.3    0.067    0.082    0.251    0.585
 mp_allgather_i34                  1726 12.3    0.427    0.583    0.427    0.583
 multiply_cannon_metrocomm2       51780 13.3    0.157    0.170    0.305    0.553
 pw_poisson_rebuild                 280 10.4    0.000    0.000    0.506    0.512
 ps_wavelet_create                    1 10.0    0.000    0.000    0.506    0.512
 RS_z_slice_distribution              1 11.0    0.423    0.493    0.506    0.512
 pw_gather_p                       2810 13.4    0.405    0.509    0.405    0.509
 scf_env_initial_rho_setup            1  4.0    0.000    0.000    0.468    0.468
 qs_env_setup                         1  3.0    0.000    0.000    0.440    0.456
 qs_env_rebuild_pw_env                2  3.5    0.000    0.000    0.438    0.455
 pw_env_rebuild                       1  5.0    0.000    0.001    0.438    0.454
 mp_cart_sub                       2707 11.3    0.438    0.441    0.438    0.441
 tddfpt_init_mos                      1  5.0    0.000    0.000    0.432    0.432
 tddfpt_init_ground_state_mos         1  6.0    0.000    0.000    0.432    0.432
 dbcsr_copy                       44260  7.8    0.231    0.302    0.347    0.431
 mp_max_i                           759  5.3    0.294    0.419    0.294    0.419
 cp_fm_power                          1  6.0    0.003    0.006    0.399    0.400
 dbcsr_work_create                27740 12.2    0.094    0.257    0.147    0.398
 xc_functional_eval                1201 10.9    0.001    0.005    0.282    0.394
 eigensolver                          1  7.0    0.000    0.000    0.394    0.394
 cp_fm_redistribute_start           133  8.2    0.220    0.285    0.292    0.390
 pbe_lda_eval                      1201 11.9    0.281    0.390    0.281    0.390
 cp_fm_write_unformatted             44  7.5    0.074    0.344    0.086    0.379
 dbcsr_iterator_stop             145121  9.4    0.216    0.343    0.244    0.378
 mp_isend_zv                      59400 14.9    0.076    0.364    0.076    0.364
 mp_cart_create                    2475 10.6    0.319    0.352    0.321    0.355
 dbcsr_work_destroy_all           27740 13.1    0.083    0.231    0.122    0.334
 write_mo_set_to_restart             80  5.0    0.001    0.007    0.022    0.317
 dbcsr_create_new                 67684  9.9    0.226    0.249    0.288    0.314
 write_mo_set_low                     4  6.0    0.000    0.001    0.021    0.314
 mp_bcast_am_src                    207  7.0    0.218    0.278    0.238    0.303
 mp_send_dv                          44  8.4    0.011    0.300    0.011    0.300
 mp_bcast_i_src                     828  7.0    0.175    0.280    0.175    0.280
 mp_max_d                           262  8.3    0.113    0.272    0.113    0.272
 tddfpt_compute_ritz_vects           10  7.0    0.005    0.008    0.265    0.268
 xc_2nd_deriv_of_r                  800 10.0    0.001    0.071    0.005    0.260
 self_consistency_check              80  5.0    0.000    0.000    0.098    0.247
 cp_sm_mix                           80  6.0    0.001    0.006    0.097    0.246
 -------------------------------------------------------------------------------

 The number of warnings for this run is : 2
 
 -------------------------------------------------------------------------------
  **** **** ******  **  PROGRAM ENDED AT                 2025-04-14 14:28:49.859
 ***** ** ***  *** **   PROGRAM RAN ON                              i05r06c03s01
 **    ****   ******    PROGRAM RAN BY                                   di38fab
 ***** **    ** ** **   PROGRAM PROCESS ID                               2633429
  **** **  *******  **  PROGRAM STOPPED IN /hppfs/scratch/04/di38fab/05_MOL/aUKB
                                           qsEOTmq69kFe5R_nOg/5k_set_final_qzvp/
                                           LIVZIA/aug-cc-pV5Z/TDDFT
