 DBCSR| CPU Multiplication driver                                           BLAS (U)
 DBCSR| Multrec recursion limit                                              512 (U)
 DBCSR| Multiplication stack size                                           1000 (D)
 DBCSR| Maximum elements for images                                    UNLIMITED (U)
 DBCSR| Multiplicative factor virtual images                                   1 (U)
 DBCSR| Use multiplication densification                                       T (D)
 DBCSR| Multiplication size stacks                                             3 (U)
 DBCSR| Use memory pool for CPU allocation                                     F (U)
 DBCSR| Number of 3D layers                                               SINGLE (U)
 DBCSR| Use MPI memory allocation                                              F (U)
 DBCSR| Use RMA algorithm                                                      F (U)
 DBCSR| Use Communication thread                                               T (U)
 DBCSR| Communication thread load                                             75 (D)
 DBCSR| MPI: My process id                                                     0
 DBCSR| MPI: Number of processes                                             216
 DBCSR| OMP: Current number of threads                                         4
 DBCSR| OMP: Max number of threads                                             4
 DBCSR| Split modifier for TAS multiplication algorithm                  1.0E+00 (U)


  **** **** ******  **  PROGRAM STARTED AT               2025-04-11 17:12:06.295
 ***** ** ***  *** **   PROGRAM STARTED ON                          i04r07c05s08
 **    ****   ******    PROGRAM STARTED BY                               di38fab
 ***** **    ** ** **   PROGRAM PROCESS ID                                113550
  **** **  *******  **  PROGRAM STARTED IN /hppfs/scratch/04/di38fab/07_MOL_non_
                                           aug/05_MOL_non_aug/05_MOL/W4-11+ALK/c
                                           -hono/cc-pVQZ/GW+BSE

 CP2K| version string:                 CP2K version 2025.1 (Development Version)
 CP2K| source code revision number:                             unknown revision
 CP2K| cp2kflags: omp libint fftw3 libxc parallel scalapack max_contr=4         
 CP2K| is freely available from                            https://www.cp2k.org/
 CP2K| Program compiled at                         Thu Apr 10 16:20:23 CEST 2025
 CP2K| Program compiled on                                               login01
 CP2K| Program compiled for                                        Supermuc-foss
 CP2K| Data directory path                  /hppfs/work/pn36zo/di38fab/cp2k/data
 CP2K| Input file name                                                    GW.inp

 GLOBAL| Force Environment number                                              1
 GLOBAL| Basis set file name            /hppfs/scratch/04/di38fab/04_TMD/BASIS_A
 GLOBAL| Potential file name            /hppfs/work/pn36zo/di38fab/cp2k/data/ALL
 GLOBAL| MM Potential file name                                     MM_POTENTIAL
 GLOBAL| Coordinate file name                                      __STD_INPUT__
 GLOBAL| Method name                                                        CP2K
 GLOBAL| Project name                                                       MoS2
 GLOBAL| Run type                                                         ENERGY
 GLOBAL| FFT library                                                       FFTW3
 GLOBAL| Diagonalization library                                       ScaLAPACK
 GLOBAL| DGEMM library                                                      BLAS
 GLOBAL| Orthonormality check for eigenvectors                          DISABLED
 GLOBAL| Matrix multiplication library                                 ScaLAPACK
 GLOBAL| All-to-all communication in single precision                          F
 GLOBAL| FFTs using library dependent lengths                                  F
 GLOBAL| Grid backend                                                       AUTO
 GLOBAL| Global print level                                               MEDIUM
 GLOBAL| MPI I/O enabled                                                       T
 GLOBAL| Total number of message passing processes                           216
 GLOBAL| Number of threads for this process                                    4
 GLOBAL| This output is from process                                           0
 GLOBAL| OpenMP stack size per thread (OMP_STACKSIZE)                    default
 GLOBAL| CPU model name             Intel(R) Xeon(R) Platinum 8174 CPU @ 3.10GHz

 MEMORY| system memory details [Kb]
 MEMORY|                        rank 0           min           max       average
 MEMORY| MemTotal             98436636      98436636      98436708      98436674
 MEMORY| MemFree              84930432      83618700      84930432      84078781
 MEMORY| Buffers                     0             0             0             0
 MEMORY| Cached                2386536       2386536       2423872       2410580
 MEMORY| Slab                  1033704       1033704       1276964       1212709
 MEMORY| SReclaimable           236324        236324        278884        268035
 MEMORY| MemLikelyFree        87553292      86291824      87553292      86757397


 *** Fundamental physical constants (SI units) ***

 *** Literature: B. J. Mohr and B. N. Taylor,
 ***             CODATA recommended values of the fundamental physical
 ***             constants: 2006, Web Version 5.1
 ***             http://physics.nist.gov/constants

 Speed of light in vacuum [m/s]                             2.99792458000000E+08
 Magnetic constant or permeability of vacuum [N/A**2]       1.25663706143592E-06
 Electric constant or permittivity of vacuum [F/m]          8.85418781762039E-12
 Planck constant (h) [J*s]                                  6.62606896000000E-34
 Planck constant (h-bar) [J*s]                              1.05457162825177E-34
 Elementary charge [C]                                      1.60217648700000E-19
 Electron mass [kg]                                         9.10938215000000E-31
 Electron g factor [ ]                                     -2.00231930436220E+00
 Proton mass [kg]                                           1.67262163700000E-27
 Fine-structure constant                                    7.29735253760000E-03
 Rydberg constant [1/m]                                     1.09737315685270E+07
 Avogadro constant [1/mol]                                  6.02214179000000E+23
 Boltzmann constant [J/K]                                   1.38065040000000E-23
 Atomic mass unit [kg]                                      1.66053878200000E-27
 Bohr radius [m]                                            5.29177208590000E-11

 *** Conversion factors ***

 [u] -> [a.u.]                                              1.82288848426455E+03
 [Angstrom] -> [Bohr] = [a.u.]                              1.88972613288564E+00
 [a.u.] = [Bohr] -> [Angstrom]                              5.29177208590000E-01
 [a.u.] -> [s]                                              2.41888432650478E-17
 [a.u.] -> [fs]                                             2.41888432650478E-02
 [a.u.] -> [J]                                              4.35974393937059E-18
 [a.u.] -> [N]                                              8.23872205491840E-08
 [a.u.] -> [K]                                              3.15774647902944E+05
 [a.u.] -> [kJ/mol]                                         2.62549961709828E+03
 [a.u.] -> [kcal/mol]                                       6.27509468713739E+02
 [a.u.] -> [Pa]                                             2.94210107994716E+13
 [a.u.] -> [bar]                                            2.94210107994716E+08
 [a.u.] -> [atm]                                            2.90362800883016E+08
 [a.u.] -> [eV]                                             2.72113838565563E+01
 [a.u.] -> [Hz]                                             6.57968392072181E+15
 [a.u.] -> [1/cm] (wave numbers)                            2.19474631370540E+05
 [a.u./Bohr**2] -> [1/cm]                                   5.14048714338585E+03
 

 CELL_TOP| Volume [angstrom^3]:                                     27000.000000
 CELL_TOP| Vector a [angstrom    30.000     0.000     0.000   |a| =    30.000000
 CELL_TOP| Vector b [angstrom     0.000    30.000     0.000   |b| =    30.000000
 CELL_TOP| Vector c [angstrom     0.000     0.000    30.000   |c| =    30.000000
 CELL_TOP| Angle (b,c), alpha [degree]:                                90.000000
 CELL_TOP| Angle (a,c), beta  [degree]:                                90.000000
 CELL_TOP| Angle (a,b), gamma [degree]:                                90.000000
 CELL_TOP| Numerically orthorhombic:                                         YES
 CELL_TOP| Periodicity                                                      NONE

 GENERATE|  Preliminary Number of Bonds generated:                             0
 GENERATE|  Achieved consistency in connectivity generation.

 CELL| Volume [angstrom^3]:                                         27000.000000
 CELL| Vector a [angstrom]:      30.000     0.000     0.000   |a| =    30.000000
 CELL| Vector b [angstrom]:       0.000    30.000     0.000   |b| =    30.000000
 CELL| Vector c [angstrom]:       0.000     0.000    30.000   |c| =    30.000000
 CELL| Angle (b,c), alpha [degree]:                                    90.000000
 CELL| Angle (a,c), beta  [degree]:                                    90.000000
 CELL| Angle (a,b), gamma [degree]:                                    90.000000
 CELL| Numerically orthorhombic:                                             YES
 CELL| Periodicity                                                          NONE

 CELL_REF| Volume [angstrom^3]:                                     27000.000000
 CELL_REF| Vector a [angstrom    30.000     0.000     0.000   |a| =    30.000000
 CELL_REF| Vector b [angstrom     0.000    30.000     0.000   |b| =    30.000000
 CELL_REF| Vector c [angstrom     0.000     0.000    30.000   |c| =    30.000000
 CELL_REF| Angle (b,c), alpha [degree]:                                90.000000
 CELL_REF| Angle (a,c), beta  [degree]:                                90.000000
 CELL_REF| Angle (a,b), gamma [degree]:                                90.000000
 CELL_REF| Numerically orthorhombic:                                         YES
 CELL_REF| Periodicity                                                      NONE

 *******************************************************************************
 *******************************************************************************
 **                                                                           **
 **     #####                         ##              ##                      **
 **    ##   ##            ##          ##              ##                      **
 **   ##     ##                       ##            ######                    **
 **   ##     ##  ##   ##  ##   #####  ##  ##   ####   ##    #####    #####    **
 **   ##     ##  ##   ##  ##  ##      ## ##   ##      ##   ##   ##  ##   ##   **
 **   ##  ## ##  ##   ##  ##  ##      ####     ###    ##   ######   ######    **
 **    ##  ###   ##   ##  ##  ##      ## ##      ##   ##   ##       ##        **
 **     #######   #####   ##   #####  ##  ##  ####    ##    #####   ##        **
 **           ##                                                    ##        **
 **                                                                           **
 **                                                ... make the atoms dance   **
 **                                                                           **
 **            Copyright (C) by CP2K developers group (2000-2025)             **
 **                      J. Chem. Phys. 152, 194103 (2020)                    **
 **                                                                           **
 *******************************************************************************

 DFT| Spin restricted Kohn-Sham (RKS) calculation                            RKS
 DFT| Multiplicity                                                             1
 DFT| Number of spin states                                                    1
 DFT| Charge                                                                   0
 DFT| Self-interaction correction (SIC)                                       NO
 DFT| Cutoffs: density                                              1.000000E-10
 DFT|          gradient                                             1.000000E-10
 DFT|          tau                                                  1.000000E-10
 DFT|          cutoff_smoothing_range                               0.000000E+00
 DFT| XC density smoothing                                                  NONE
 DFT| XC derivatives                                                          PW

 FUNCTIONAL| PBE:
 FUNCTIONAL| J.P.Perdew, K.Burke, M.Ernzerhof, Phys. Rev. Letter, vol. 77, n 18,
 FUNCTIONAL|  pp. 3865-3868, (1996)sx=0.750sc=1.000{spin unpolarized}           


 QS| Method:                                                                GAPW
 QS| Density plane wave grid type                        NON-SPHERICAL FULLSPACE
 QS| Number of grid levels:                                                    4
 QS| Density cutoff [a.u.]:                                                250.0
 QS| Multi grid cutoff [a.u.]: 1) grid level                               250.0
 QS|                           2) grid level                                83.3
 QS|                           3) grid level                                27.8
 QS|                           4) grid level                                 9.3
 QS| Grid level progression factor:                                          3.0
 QS| Relative density cutoff [a.u.]:                                        50.0
 QS| Interaction thresholds: eps_pgf_orb:                                1.0E-12
 QS|                         eps_filter_matrix:                          0.0E+00
 QS|                         eps_core_charge:                            1.0E-14
 QS|                         eps_rho_gspace:                             1.0E-12
 QS|                         eps_rho_rspace:                             1.0E-12
 QS|                         eps_gvg_rspace:                             1.0E-06
 QS|                         eps_ppl:                                    1.0E-02
 QS|                         eps_ppnl:                                   1.0E-08
 QS| GAPW|      One center basis from orbital basis primitives
 QS| GAPW|                   eps_fit:                                    1.0E-04
 QS| GAPW|                   eps_iso:                                    1.0E-12
 QS| GAPW|                   eps_svd:                                    1.0E-08
 QS| GAPW|                   eps_cpc:                                    1.0E-12
 QS| GAPW|   atom-r-grid: quadrature:                                     GC_LOG
 QS| GAPW|      atom-s-grid:  max l :                                          8
 QS| GAPW|      max_l_rho0 :                                                   2


 ATOMIC KIND INFORMATION

  1. Atomic kind: O                                     Number of atoms:       2

     Orbital Basis Set                                                   cc-pVQZ

       Number of orbital shell sets:                                           5
       Number of orbital shells:                                              15
       Number of primitive Cartesian functions:                               24
       Number of Cartesian basis functions:                                   70
       Number of spherical basis functions:                                   55
       Norm type:                                                              2

       Normalised Cartesian orbitals:

                        Set   Shell   Orbital            Exponent    Coefficient

                          1       1    1px              63.420000       0.000000
                                                        14.660000       0.000000
                                                         4.459000       0.000000
                                                         1.531000       2.427499
                                                         0.530200       0.000000
                                                         0.175000       0.000000
                          1       1    1py              63.420000       0.000000
                                                        14.660000       0.000000
                                                         4.459000       0.000000
                                                         1.531000       2.427499
                                                         0.530200       0.000000
                                                         0.175000       0.000000
                          1       1    1pz              63.420000       0.000000
                                                        14.660000       0.000000
                                                         4.459000       0.000000
                                                         1.531000       2.427499
                                                         0.530200       0.000000
                                                         0.175000       0.000000

                          1       2    2px              63.420000       1.541868
                                                        14.660000       1.709122
                                                         4.459000       1.488326
                                                         1.531000       0.865964
                                                         0.530200       0.289113
                                                         0.175000       0.039518
                          1       2    2py              63.420000       1.541868
                                                        14.660000       1.709122
                                                         4.459000       1.488326
                                                         1.531000       0.865964
                                                         0.530200       0.289113
                                                         0.175000       0.039518
                          1       2    2pz              63.420000       1.541868
                                                        14.660000       1.709122
                                                         4.459000       1.488326
                                                         1.531000       0.865964
                                                         0.530200       0.289113
                                                         0.175000       0.039518

                          1       3    3px              63.420000       0.000000
                                                        14.660000       0.000000
                                                         4.459000       0.000000
                                                         1.531000       0.000000
                                                         0.530200       0.644896
                                                         0.175000       0.000000
                          1       3    3py              63.420000       0.000000
                                                        14.660000       0.000000
                                                         4.459000       0.000000
                                                         1.531000       0.000000
                                                         0.530200       0.644896
                                                         0.175000       0.000000
                          1       3    3pz              63.420000       0.000000
                                                        14.660000       0.000000
                                                         4.459000       0.000000
                                                         1.531000       0.000000
                                                         0.530200       0.644896
                                                         0.175000       0.000000

                          1       4    4px              63.420000       0.000000
                                                        14.660000       0.000000
                                                         4.459000       0.000000
                                                         1.531000       0.000000
                                                         0.530200       0.000000
                                                         0.175000       0.161338
                          1       4    4py              63.420000       0.000000
                                                        14.660000       0.000000
                                                         4.459000       0.000000
                                                         1.531000       0.000000
                                                         0.530200       0.000000
                                                         0.175000       0.161338
                          1       4    4pz              63.420000       0.000000
                                                        14.660000       0.000000
                                                         4.459000       0.000000
                                                         1.531000       0.000000
                                                         0.530200       0.000000
                                                         0.175000       0.161338

                          2       1    1s            61420.000000       0.250256
                                                      9199.000000       0.467274
                                                      2091.000000       0.807479
                                                       590.900000       1.299881
                                                       192.300000       1.929375
                                                        69.320000       2.498458
                                                        26.970000       2.574768
                                                        11.100000       1.727188
                                                         4.682000       0.492214
                                                         1.428000       0.016380
                                                         0.554700      -0.001146
                                                         0.206700       0.000208

                          2       2    2s            61420.000000       0.000000
                                                      9199.000000       0.000000
                                                      2091.000000       0.000000
                                                       590.900000       0.000000
                                                       192.300000       0.000000
                                                        69.320000       0.000000
                                                        26.970000       0.000000
                                                        11.100000       0.000000
                                                         4.682000       0.000000
                                                         1.428000       0.931014
                                                         0.554700       0.000000
                                                         0.206700       0.000000

                          2       3    3s            61420.000000       0.000000
                                                      9199.000000       0.000000
                                                      2091.000000       0.000000
                                                       590.900000       0.000000
                                                       192.300000       0.000000
                                                        69.320000       0.000000
                                                        26.970000       0.000000
                                                        11.100000       0.000000
                                                         4.682000       0.000000
                                                         1.428000       0.000000
                                                         0.554700       0.458093
                                                         0.206700       0.000000

                          2       4    4s            61420.000000      -0.055613
                                                      9199.000000      -0.106442
                                                      2091.000000      -0.182696
                                                       590.900000      -0.299644
                                                       192.300000      -0.447389
                                                        69.320000      -0.620860
                                                        26.970000      -0.700015
                                                        11.100000      -0.659178
                                                         4.682000      -0.261625
                                                         1.428000       0.269044
                                                         0.554700       0.268501
                                                         0.206700       0.060656

                          2       5    5s            61420.000000       0.000000
                                                      9199.000000       0.000000
                                                      2091.000000       0.000000
                                                       590.900000       0.000000
                                                       192.300000       0.000000
                                                        69.320000       0.000000
                                                        26.970000       0.000000
                                                        11.100000       0.000000
                                                         4.682000       0.000000
                                                         1.428000       0.000000
                                                         0.554700       0.000000
                                                         0.206700       0.218482

                          3       1    1dx2              3.775000      16.827288
                                                         1.300000       0.000000
                                                         0.444000       0.000000
                          3       1    1dxy              3.775000      29.145718
                                                         1.300000       0.000000
                                                         0.444000       0.000000
                          3       1    1dxz              3.775000      29.145718
                                                         1.300000       0.000000
                                                         0.444000       0.000000
                          3       1    1dy2              3.775000      16.827288
                                                         1.300000       0.000000
                                                         0.444000       0.000000
                          3       1    1dyz              3.775000      29.145718
                                                         1.300000       0.000000
                                                         0.444000       0.000000
                          3       1    1dz2              3.775000      16.827288
                                                         1.300000       0.000000
                                                         0.444000       0.000000

                          3       2    2dx2              3.775000       0.000000
                                                         1.300000       2.605016
                                                         0.444000       0.000000
                          3       2    2dxy              3.775000       0.000000
                                                         1.300000       4.512019
                                                         0.444000       0.000000
                          3       2    2dxz              3.775000       0.000000
                                                         1.300000       4.512019
                                                         0.444000       0.000000
                          3       2    2dy2              3.775000       0.000000
                                                         1.300000       2.605016
                                                         0.444000       0.000000
                          3       2    2dyz              3.775000       0.000000
                                                         1.300000       4.512019
                                                         0.444000       0.000000
                          3       2    2dz2              3.775000       0.000000
                                                         1.300000       2.605016
                                                         0.444000       0.000000

                          3       3    3dx2              3.775000       0.000000
                                                         1.300000       0.000000
                                                         0.444000       0.397493
                          3       3    3dxy              3.775000       0.000000
                                                         1.300000       0.000000
                                                         0.444000       0.688478
                          3       3    3dxz              3.775000       0.000000
                                                         1.300000       0.000000
                                                         0.444000       0.688478
                          3       3    3dy2              3.775000       0.000000
                                                         1.300000       0.000000
                                                         0.444000       0.397493
                          3       3    3dyz              3.775000       0.000000
                                                         1.300000       0.000000
                                                         0.444000       0.688478
                          3       3    3dz2              3.775000       0.000000
                                                         1.300000       0.000000
                                                         0.444000       0.397493

                          4       1    1fx3              2.666000      13.370258
                                                         0.859000       0.000000
                          4       1    1fx2y             2.666000      29.896805
                                                         0.859000       0.000000
                          4       1    1fx2z             2.666000      29.896805
                                                         0.859000       0.000000
                          4       1    1fxy2             2.666000      29.896805
                                                         0.859000       0.000000
                          4       1    1fxyz             2.666000      51.782785
                                                         0.859000       0.000000
                          4       1    1fxz2             2.666000      29.896805
                                                         0.859000       0.000000
                          4       1    1fy3              2.666000      13.370258
                                                         0.859000       0.000000
                          4       1    1fy2z             2.666000      29.896805
                                                         0.859000       0.000000
                          4       1    1fyz2             2.666000      29.896805
                                                         0.859000       0.000000
                          4       1    1fz3              2.666000      13.370258
                                                         0.859000       0.000000

                          4       2    2fx3              2.666000       0.000000
                                                         0.859000       1.045777
                          4       2    2fx2y             2.666000       0.000000
                                                         0.859000       2.338428
                          4       2    2fx2z             2.666000       0.000000
                                                         0.859000       2.338428
                          4       2    2fxy2             2.666000       0.000000
                                                         0.859000       2.338428
                          4       2    2fxyz             2.666000       0.000000
                                                         0.859000       4.050277
                          4       2    2fxz2             2.666000       0.000000
                                                         0.859000       2.338428
                          4       2    2fy3              2.666000       0.000000
                                                         0.859000       1.045777
                          4       2    2fy2z             2.666000       0.000000
                                                         0.859000       2.338428
                          4       2    2fyz2             2.666000       0.000000
                                                         0.859000       2.338428
                          4       2    2fz3              2.666000       0.000000
                                                         0.859000       1.045777

                          5       1    1gx4              1.846000       6.005824
                          5       1    1gx3y             1.846000      15.889916
                          5       1    1gx3z             1.846000      15.889916
                          5       1    1gx2y2            1.846000      20.513794
                          5       1    1gx2yz            1.846000      35.530933
                          5       1    1gx2z2            1.846000      20.513794
                          5       1    1gxy3             1.846000      15.889916
                          5       1    1gxy2z            1.846000      35.530933
                          5       1    1gxyz2            1.846000      35.530933
                          5       1    1gxz3             1.846000      15.889916
                          5       1    1gy4              1.846000       6.005824
                          5       1    1gy3z             1.846000      15.889916
                          5       1    1gy2z2            1.846000      20.513794
                          5       1    1gyz3             1.846000      15.889916
                          5       1    1gz4              1.846000       6.005824

     RI Auxiliary Basis Set                                        cc-pVQZ-RIFIT

       Number of orbital shell sets:                                          30
       Number of orbital shells:                                              30
       Number of primitive Cartesian functions:                               30
       Number of Cartesian basis functions:                                  181
       Number of spherical basis functions:                                  132
       Norm type:                                                              2

       Normalised Cartesian orbitals:

                        Set   Shell   Orbital            Exponent    Coefficient

                          1       1    1s                0.318502       0.302165

                          2       1    1dx2              0.423091       0.365316
                          2       1    1dxy              0.423091       0.632745
                          2       1    1dxz              0.423091       0.632745
                          2       1    1dy2              0.423091       0.365316
                          2       1    1dyz              0.423091       0.632745
                          2       1    1dz2              0.423091       0.365316

                          3       1    1px               0.478052       0.566609
                          3       1    1py               0.478052       0.566609
                          3       1    1pz               0.478052       0.566609

                          4       1    1s                0.718532       0.556217

                          5       1    1fx3              0.738724       0.744798
                          5       1    1fx2y             0.738724       1.665420
                          5       1    1fx2z             0.738724       1.665420
                          5       1    1fxy2             0.738724       1.665420
                          5       1    1fxyz             0.738724       2.884592
                          5       1    1fxz2             0.738724       1.665420
                          5       1    1fy3              0.738724       0.744798
                          5       1    1fy2z             0.738724       1.665420
                          5       1    1fyz2             0.738724       1.665420
                          5       1    1fz3              0.738724       0.744798

                          6       1    1px               0.867990       1.194217
                          6       1    1py               0.867990       1.194217
                          6       1    1pz               0.867990       1.194217

                          7       1    1dx2              0.989462       1.615690
                          7       1    1dxy              0.989462       2.798457
                          7       1    1dxz              0.989462       2.798457
                          7       1    1dy2              0.989462       1.615690
                          7       1    1dyz              0.989462       2.798457
                          7       1    1dz2              0.989462       1.615690

                          8       1    1gx4              1.259508       2.098884
                          8       1    1gx3y             1.259508       5.553125
                          8       1    1gx3z             1.259508       5.553125
                          8       1    1gx2y2            1.259508       7.169054
                          8       1    1gx2yz            1.259508      12.417166
                          8       1    1gx2z2            1.259508       7.169054
                          8       1    1gxy3             1.259508       5.553125
                          8       1    1gxy2z            1.259508      12.417166
                          8       1    1gxyz2            1.259508      12.417166
                          8       1    1gxz3             1.259508       5.553125
                          8       1    1gy4              1.259508       2.098884
                          8       1    1gy3z             1.259508       5.553125
                          8       1    1gy2z2            1.259508       7.169054
                          8       1    1gyz3             1.259508       5.553125
                          8       1    1gz4              1.259508       2.098884

                          9       1    1fx3              1.320839       2.753384
                          9       1    1fx2y             1.320839       6.156753
                          9       1    1fx2z             1.320839       6.156753
                          9       1    1fxy2             1.320839       6.156753
                          9       1    1fxyz             1.320839      10.663809
                          9       1    1fxz2             1.320839       6.156753
                          9       1    1fy3              1.320839       2.753384
                          9       1    1fy2z             1.320839       6.156753
                          9       1    1fyz2             1.320839       6.156753
                          9       1    1fz3              1.320839       2.753384

                         10       1    1s                1.525331       0.978213

                         11       1    1px               1.853895       3.083518
                         11       1    1py               1.853895       3.083518
                         11       1    1pz               1.853895       3.083518

                         12       1    1dx2              2.140282       6.233525
                         12       1    1dxy              2.140282      10.796782
                         12       1    1dxz              2.140282      10.796782
                         12       1    1dy2              2.140282       6.233525
                         12       1    1dyz              2.140282      10.796782
                         12       1    1dz2              2.140282       6.233525

                         13       1    1gx4              2.540195      14.448403
                         13       1    1gx3y             2.540195      38.226880
                         13       1    1gx3z             2.540195      38.226880
                         13       1    1gx2y2            2.540195      49.350690
                         13       1    1gx2yz            2.540195      85.477902
                         13       1    1gx2z2            2.540195      49.350690
                         13       1    1gxy3             2.540195      38.226880
                         13       1    1gxy2z            2.540195      85.477902
                         13       1    1gxyz2            2.540195      85.477902
                         13       1    1gxz3             2.540195      38.226880
                         13       1    1gy4              2.540195      14.448403
                         13       1    1gy3z             2.540195      38.226880
                         13       1    1gy2z2            2.540195      49.350690
                         13       1    1gyz3             2.540195      38.226880
                         13       1    1gz4              2.540195      14.448403

                         14       1    1s                2.588088       1.454268

                         15       1    1hx5              2.765541      20.236213
                         15       1    1hx4y             2.765541      60.708639
                         15       1    1hx4z             2.765541      60.708639
                         15       1    1hx3y2            2.765541      92.733978
                         15       1    1hx3yz            2.765541     160.619961
                         15       1    1hx3z2            2.765541      92.733978
                         15       1    1hx2y3            2.765541      92.733978
                         15       1    1hx2y2z           2.765541     207.359478
                         15       1    1hx2yz2           2.765541     207.359478
                         15       1    1hx2z3            2.765541      92.733978
                         15       1    1hxy4             2.765541      60.708639
                         15       1    1hxy3z            2.765541     160.619961
                         15       1    1hxy2z2           2.765541     207.359478
                         15       1    1hxyz3            2.765541     160.619961
                         15       1    1hxz4             2.765541      60.708639
                         15       1    1hy5              2.765541      20.236213
                         15       1    1hy4z             2.765541      60.708639
                         15       1    1hy3z2            2.765541      92.733978
                         15       1    1hy2z3            2.765541      92.733978
                         15       1    1hyz4             2.765541      60.708639
                         15       1    1hz5              2.765541      20.236213

                         16       1    1fx3              2.958020      16.893007
                         16       1    1fx2y             2.958020      37.773911
                         16       1    1fx2z             2.958020      37.773911
                         16       1    1fxy2             2.958020      37.773911
                         16       1    1fxyz             2.958020      65.426334
                         16       1    1fxz2             2.958020      37.773911
                         16       1    1fy3              2.958020      16.893007
                         16       1    1fy2z             2.958020      37.773911
                         16       1    1fyz2             2.958020      37.773911
                         16       1    1fz3              2.958020      16.893007

                         17       1    1px               3.341962       6.440832
                         17       1    1py               3.341962       6.440832
                         17       1    1pz               3.341962       6.440832

                         18       1    1dx2              3.910668      17.899816
                         18       1    1dxy              3.910668      31.003391
                         18       1    1dxz              3.910668      31.003391
                         18       1    1dy2              3.910668      17.899816
                         18       1    1dyz              3.910668      31.003391
                         18       1    1dz2              3.910668      17.899816

                         19       1    1fx3              4.449559      42.331894
                         19       1    1fx2y             4.449559      94.656992
                         19       1    1fx2z             4.449559      94.656992
                         19       1    1fxy2             4.449559      94.656992
                         19       1    1fxyz             4.449559     163.950720
                         19       1    1fxz2             4.449559      94.656992
                         19       1    1fy3              4.449559      42.331894
                         19       1    1fy2z             4.449559      94.656992
                         19       1    1fyz2             4.449559      94.656992
                         19       1    1fz3              4.449559      42.331894

                         20       1    1gx4              4.947623      90.370367
                         20       1    1gx3y             4.947623     239.097518
                         20       1    1gx3z             4.947623     239.097518
                         20       1    1gx2y2            4.947623     308.673569
                         20       1    1gx2yz            4.947623     534.638304
                         20       1    1gx2z2            4.947623     308.673569
                         20       1    1gxy3             4.947623     239.097518
                         20       1    1gxy2z            4.947623     534.638304
                         20       1    1gxyz2            4.947623     534.638304
                         20       1    1gxz3             4.947623     239.097518
                         20       1    1gy4              4.947623      90.370367
                         20       1    1gy3z             4.947623     239.097518
                         20       1    1gy2z2            4.947623     308.673569
                         20       1    1gyz3             4.947623     239.097518
                         20       1    1gz4              4.947623      90.370367

                         21       1    1s                5.225256       2.463149

                         22       1    1px               6.566306      14.982750
                         22       1    1py               6.566306      14.982750
                         22       1    1pz               6.566306      14.982750

                         23       1    1dx2              8.636089      71.608466
                         23       1    1dxy              8.636089     124.029502
                         23       1    1dxz              8.636089     124.029502
                         23       1    1dy2              8.636089      71.608466
                         23       1    1dyz              8.636089     124.029502
                         23       1    1dz2              8.636089      71.608466

                         24       1    1fx3             10.502388     292.316002
                         24       1    1fx2y            10.502388     653.638452
                         24       1    1fx2z            10.502388     653.638452
                         24       1    1fxy2            10.502388     653.638452
                         24       1    1fxyz            10.502388    1132.135008
                         24       1    1fxz2            10.502388     653.638452
                         24       1    1fy3             10.502388     292.316002
                         24       1    1fy2z            10.502388     653.638452
                         24       1    1fyz2            10.502388     653.638452
                         24       1    1fz3             10.502388     292.316002

                         25       1    1s               21.117407       7.020864

                         26       1    1px              22.294395      69.053340
                         26       1    1py              22.294395      69.053340
                         26       1    1pz              22.294395      69.053340

                         27       1    1dx2             25.394489     472.828403
                         27       1    1dxy             25.394489     818.962817
                         27       1    1dxz             25.394489     818.962817
                         27       1    1dy2             25.394489     472.828403
                         27       1    1dyz             25.394489     818.962817
                         27       1    1dz2             25.394489     472.828403

                         28       1    1s               75.357262      18.228626

                         29       1    1px              88.557170     387.230674
                         29       1    1py              88.557170     387.230674
                         29       1    1pz              88.557170     387.230674

                         30       1    1s              353.830357      58.144201

       Atomic covalent radius [Angstrom]:                                  0.730

       Atomic van der Waals radius [Angstrom]:                             1.520

     The atoms of this atomic kind are PAW atoms (GAPW):
       Hard Gaussian function radius:                                      1.512
       Rho0 radius:                                                        1.512
       Maximum GTO radius used for PAW projector construction:            24.566

     GAPW Soft Basis Set                                            cc-pVQZ_soft

       Number of orbital shell sets:                                           5
       Number of orbital shells:                                              15
       Number of primitive Cartesian functions:                               12
       Number of Cartesian basis functions:                                   70
       Number of spherical basis functions:                                   55
       Norm type:                                                              2

       Normalised Cartesian orbitals:

                        Set   Shell   Orbital            Exponent    Coefficient

                          1       1    1px               1.531000       2.427499
                                                         0.530200       0.000000
                                                         0.175000       0.000000
                          1       1    1py               1.531000       2.427499
                                                         0.530200       0.000000
                                                         0.175000       0.000000
                          1       1    1pz               1.531000       2.427499
                                                         0.530200       0.000000
                                                         0.175000       0.000000

                          1       2    2px               1.531000       0.865964
                                                         0.530200       0.289113
                                                         0.175000       0.039518
                          1       2    2py               1.531000       0.865964
                                                         0.530200       0.289113
                                                         0.175000       0.039518
                          1       2    2pz               1.531000       0.865964
                                                         0.530200       0.289113
                                                         0.175000       0.039518

                          1       3    3px               1.531000       0.000000
                                                         0.530200       0.644896
                                                         0.175000       0.000000
                          1       3    3py               1.531000       0.000000
                                                         0.530200       0.644896
                                                         0.175000       0.000000
                          1       3    3pz               1.531000       0.000000
                                                         0.530200       0.644896
                                                         0.175000       0.000000

                          1       4    4px               1.531000       0.000000
                                                         0.530200       0.000000
                                                         0.175000       0.161338
                          1       4    4py               1.531000       0.000000
                                                         0.530200       0.000000
                                                         0.175000       0.161338
                          1       4    4pz               1.531000       0.000000
                                                         0.530200       0.000000
                                                         0.175000       0.161338

                          2       1    1s                1.428000       0.016380
                                                         0.554700      -0.001146
                                                         0.206700       0.000208

                          2       2    2s                1.428000       0.931014
                                                         0.554700       0.000000
                                                         0.206700       0.000000

                          2       3    3s                1.428000       0.000000
                                                         0.554700       0.458093
                                                         0.206700       0.000000

                          2       4    4s                1.428000       0.269044
                                                         0.554700       0.268501
                                                         0.206700       0.060656

                          2       5    5s                1.428000       0.000000
                                                         0.554700       0.000000
                                                         0.206700       0.218482

                          3       1    1dx2              3.775000      16.827288
                                                         1.300000       0.000000
                                                         0.444000       0.000000
                          3       1    1dxy              3.775000      29.145718
                                                         1.300000       0.000000
                                                         0.444000       0.000000
                          3       1    1dxz              3.775000      29.145718
                                                         1.300000       0.000000
                                                         0.444000       0.000000
                          3       1    1dy2              3.775000      16.827288
                                                         1.300000       0.000000
                                                         0.444000       0.000000
                          3       1    1dyz              3.775000      29.145718
                                                         1.300000       0.000000
                                                         0.444000       0.000000
                          3       1    1dz2              3.775000      16.827288
                                                         1.300000       0.000000
                                                         0.444000       0.000000

                          3       2    2dx2              3.775000       0.000000
                                                         1.300000       2.605016
                                                         0.444000       0.000000
                          3       2    2dxy              3.775000       0.000000
                                                         1.300000       4.512019
                                                         0.444000       0.000000
                          3       2    2dxz              3.775000       0.000000
                                                         1.300000       4.512019
                                                         0.444000       0.000000
                          3       2    2dy2              3.775000       0.000000
                                                         1.300000       2.605016
                                                         0.444000       0.000000
                          3       2    2dyz              3.775000       0.000000
                                                         1.300000       4.512019
                                                         0.444000       0.000000
                          3       2    2dz2              3.775000       0.000000
                                                         1.300000       2.605016
                                                         0.444000       0.000000

                          3       3    3dx2              3.775000       0.000000
                                                         1.300000       0.000000
                                                         0.444000       0.397493
                          3       3    3dxy              3.775000       0.000000
                                                         1.300000       0.000000
                                                         0.444000       0.688478
                          3       3    3dxz              3.775000       0.000000
                                                         1.300000       0.000000
                                                         0.444000       0.688478
                          3       3    3dy2              3.775000       0.000000
                                                         1.300000       0.000000
                                                         0.444000       0.397493
                          3       3    3dyz              3.775000       0.000000
                                                         1.300000       0.000000
                                                         0.444000       0.688478
                          3       3    3dz2              3.775000       0.000000
                                                         1.300000       0.000000
                                                         0.444000       0.397493

                          4       1    1fx3              2.666000      13.370258
                                                         0.859000       0.000000
                          4       1    1fx2y             2.666000      29.896805
                                                         0.859000       0.000000
                          4       1    1fx2z             2.666000      29.896805
                                                         0.859000       0.000000
                          4       1    1fxy2             2.666000      29.896805
                                                         0.859000       0.000000
                          4       1    1fxyz             2.666000      51.782785
                                                         0.859000       0.000000
                          4       1    1fxz2             2.666000      29.896805
                                                         0.859000       0.000000
                          4       1    1fy3              2.666000      13.370258
                                                         0.859000       0.000000
                          4       1    1fy2z             2.666000      29.896805
                                                         0.859000       0.000000
                          4       1    1fyz2             2.666000      29.896805
                                                         0.859000       0.000000
                          4       1    1fz3              2.666000      13.370258
                                                         0.859000       0.000000

                          4       2    2fx3              2.666000       0.000000
                                                         0.859000       1.045777
                          4       2    2fx2y             2.666000       0.000000
                                                         0.859000       2.338428
                          4       2    2fx2z             2.666000       0.000000
                                                         0.859000       2.338428
                          4       2    2fxy2             2.666000       0.000000
                                                         0.859000       2.338428
                          4       2    2fxyz             2.666000       0.000000
                                                         0.859000       4.050277
                          4       2    2fxz2             2.666000       0.000000
                                                         0.859000       2.338428
                          4       2    2fy3              2.666000       0.000000
                                                         0.859000       1.045777
                          4       2    2fy2z             2.666000       0.000000
                                                         0.859000       2.338428
                          4       2    2fyz2             2.666000       0.000000
                                                         0.859000       2.338428
                          4       2    2fz3              2.666000       0.000000
                                                         0.859000       1.045777

                          5       1    1gx4              1.846000       6.005824
                          5       1    1gx3y             1.846000      15.889916
                          5       1    1gx3z             1.846000      15.889916
                          5       1    1gx2y2            1.846000      20.513794
                          5       1    1gx2yz            1.846000      35.530933
                          5       1    1gx2z2            1.846000      20.513794
                          5       1    1gxy3             1.846000      15.889916
                          5       1    1gxy2z            1.846000      35.530933
                          5       1    1gxyz2            1.846000      35.530933
                          5       1    1gxz3             1.846000      15.889916
                          5       1    1gy4              1.846000       6.005824
                          5       1    1gy3z             1.846000      15.889916
                          5       1    1gy2z2            1.846000      20.513794
                          5       1    1gyz3             1.846000      15.889916
                          5       1    1gz4              1.846000       6.005824

     AE Potential information for                                            ALL

       Description:                                       All-electron potential
                                          Krack, Parrinello, PCCP 2, 2105 (2000)

       Gaussian exponent of the core charge distribution:               8.154466
       Electronic configuration (s p d ...):                           4   4   0

  2. Atomic kind: N                                     Number of atoms:       1

     Orbital Basis Set                                                   cc-pVQZ

       Number of orbital shell sets:                                           5
       Number of orbital shells:                                              15
       Number of primitive Cartesian functions:                               24
       Number of Cartesian basis functions:                                   70
       Number of spherical basis functions:                                   55
       Norm type:                                                              2

       Normalised Cartesian orbitals:

                        Set   Shell   Orbital            Exponent    Coefficient

                          1       1    1px              49.330000       0.000000
                                                        11.370000       0.000000
                                                         3.435000       0.000000
                                                         1.182000       1.756758
                                                         0.417300       0.000000
                                                         0.142800       0.000000
                          1       1    1py              49.330000       0.000000
                                                        11.370000       0.000000
                                                         3.435000       0.000000
                                                         1.182000       1.756758
                                                         0.417300       0.000000
                                                         0.142800       0.000000
                          1       1    1pz              49.330000       0.000000
                                                        11.370000       0.000000
                                                         3.435000       0.000000
                                                         1.182000       1.756758
                                                         0.417300       0.000000
                                                         0.142800       0.000000

                          1       2    2px              49.330000       1.031073
                                                        11.370000       1.129768
                                                         3.435000       0.993381
                                                         1.182000       0.612971
                                                         0.417300       0.219425
                                                         0.142800       0.030646
                          1       2    2py              49.330000       1.031073
                                                        11.370000       1.129768
                                                         3.435000       0.993381
                                                         1.182000       0.612971
                                                         0.417300       0.219425
                                                         0.142800       0.030646
                          1       2    2pz              49.330000       1.031073
                                                        11.370000       1.129768
                                                         3.435000       0.993381
                                                         1.182000       0.612971
                                                         0.417300       0.219425
                                                         0.142800       0.030646

                          1       3    3px              49.330000       0.000000
                                                        11.370000       0.000000
                                                         3.435000       0.000000
                                                         1.182000       0.000000
                                                         0.417300       0.478080
                                                         0.142800       0.000000
                          1       3    3py              49.330000       0.000000
                                                        11.370000       0.000000
                                                         3.435000       0.000000
                                                         1.182000       0.000000
                                                         0.417300       0.478080
                                                         0.142800       0.000000
                          1       3    3pz              49.330000       0.000000
                                                        11.370000       0.000000
                                                         3.435000       0.000000
                                                         1.182000       0.000000
                                                         0.417300       0.478080
                                                         0.142800       0.000000

                          1       4    4px              49.330000       0.000000
                                                        11.370000       0.000000
                                                         3.435000       0.000000
                                                         1.182000       0.000000
                                                         0.417300       0.000000
                                                         0.142800       0.125127
                          1       4    4py              49.330000       0.000000
                                                        11.370000       0.000000
                                                         3.435000       0.000000
                                                         1.182000       0.000000
                                                         0.417300       0.000000
                                                         0.142800       0.125127
                          1       4    4pz              49.330000       0.000000
                                                        11.370000       0.000000
                                                         3.435000       0.000000
                                                         1.182000       0.000000
                                                         0.417300       0.000000
                                                         0.142800       0.125127

                          2       1    1s            45840.000000       0.205414
                                                      6868.000000       0.385524
                                                      1563.000000       0.664193
                                                       442.400000       1.067821
                                                       144.300000       1.576994
                                                        52.180000       2.031073
                                                        20.340000       2.079662
                                                         8.381000       1.396111
                                                         3.529000       0.399383
                                                         1.054000       0.012576
                                                         0.411800      -0.001006
                                                         0.155200       0.000168

                          2       2    2s            45840.000000       0.000000
                                                      6868.000000       0.000000
                                                      1563.000000       0.000000
                                                       442.400000       0.000000
                                                       144.300000       0.000000
                                                        52.180000       0.000000
                                                        20.340000       0.000000
                                                         8.381000       0.000000
                                                         3.529000       0.000000
                                                         1.054000       0.741379
                                                         0.411800       0.000000
                                                         0.155200       0.000000

                          2       3    3s            45840.000000       0.000000
                                                      6868.000000       0.000000
                                                      1563.000000       0.000000
                                                       442.400000       0.000000
                                                       144.300000       0.000000
                                                        52.180000       0.000000
                                                        20.340000       0.000000
                                                         8.381000       0.000000
                                                         3.529000       0.000000
                                                         1.054000       0.000000
                                                         0.411800       0.366374
                                                         0.155200       0.000000

                          2       4    4s            45840.000000      -0.044655
                                                      6868.000000      -0.085493
                                                      1563.000000      -0.145985
                                                       442.400000      -0.239112
                                                       144.300000      -0.355066
                                                        52.180000      -0.489660
                                                        20.340000      -0.546615
                                                         8.381000      -0.515083
                                                         3.529000      -0.213527
                                                         1.054000       0.207526
                                                         0.411800       0.214505
                                                         0.155200       0.050054

                          2       5    5s            45840.000000       0.000000
                                                      6868.000000       0.000000
                                                      1563.000000       0.000000
                                                       442.400000       0.000000
                                                       144.300000       0.000000
                                                        52.180000       0.000000
                                                        20.340000       0.000000
                                                         8.381000       0.000000
                                                         3.529000       0.000000
                                                         1.054000       0.000000
                                                         0.411800       0.000000
                                                         0.155200       0.176230

                          3       1    1dx2              2.837000      10.207357
                                                         0.968000       0.000000
                                                         0.335000       0.000000
                          3       1    1dxy              2.837000      17.679661
                                                         0.968000       0.000000
                                                         0.335000       0.000000
                          3       1    1dxz              2.837000      17.679661
                                                         0.968000       0.000000
                                                         0.335000       0.000000
                          3       1    1dy2              2.837000      10.207357
                                                         0.968000       0.000000
                                                         0.335000       0.000000
                          3       1    1dyz              2.837000      17.679661
                                                         0.968000       0.000000
                                                         0.335000       0.000000
                          3       1    1dz2              2.837000      10.207357
                                                         0.968000       0.000000
                                                         0.335000       0.000000

                          3       2    2dx2              2.837000       0.000000
                                                         0.968000       1.554860
                                                         0.335000       0.000000
                          3       2    2dxy              2.837000       0.000000
                                                         0.968000       2.693097
                                                         0.335000       0.000000
                          3       2    2dxz              2.837000       0.000000
                                                         0.968000       2.693097
                                                         0.335000       0.000000
                          3       2    2dy2              2.837000       0.000000
                                                         0.968000       1.554860
                                                         0.335000       0.000000
                          3       2    2dyz              2.837000       0.000000
                                                         0.968000       2.693097
                                                         0.335000       0.000000
                          3       2    2dz2              2.837000       0.000000
                                                         0.968000       1.554860
                                                         0.335000       0.000000

[...]
 contract_B_L                         4  7.0    0.002    0.003    2.428    2.511
 integrate_vhg0_rspace               66  8.0    0.099    0.118    2.371    2.478
 cp_fm_syevd                         71  7.0    0.001    0.001    2.368    2.373
 rs_gather_matrices                  66 10.0    0.006    0.014    2.264    2.335
 grid_integrate_task_list            66 10.0    0.046    2.303    0.046    2.303
 cp_fm_redistribute_end              71  8.0    1.165    2.274    1.169    2.279
 calc_pair_dist_radii                 1 10.0    0.720    0.738    2.222    2.269
 gaVxcgb_GC                         130  9.0    0.027    2.255    0.027    2.255
 cp_fm_syevd_base                    71  8.0    1.107    2.216    1.107    2.216
 qs_scf_new_mos                      65  5.0    0.001    0.001    2.084    2.097
 calculate_rho_atom                 198  9.0    0.748    2.096    0.748    2.097
 dbt_total                            8  8.0    0.000    0.000    2.050    2.051
 create_qs_kind_set                   1  2.0    0.000    0.000    1.887    1.887
 read_qs_kind                         3  3.0    1.043    1.100    1.887    1.887
 eigensolver_symm                    66  6.0    0.002    0.002    1.651    1.655
 mp_alltoall_d45                     67 10.0    0.826    1.596    0.826    1.596
 dbt_contract                         4  9.0    0.001    0.001    1.114    1.554
 mp_sum_dv                        15049 11.8    1.435    1.532    1.435    1.532
 transfer_rs2pw_30                   66  9.0    0.624    0.657    1.416    1.473
 transfer_pw2rs_30                   66 12.0    0.604    0.662    1.357    1.438
 mp_cart_create                     433 10.2    1.148    1.262    1.149    1.263
 fft_wrap_pw1pw2_90                 132 10.5    0.022    0.031    0.581    1.249
 dbt_pgrid_create_expert             84 10.8    0.000    0.000    1.123    1.236
 cp2k_distribution_to_z_slices       66  9.0    0.302    0.329    0.739    1.148
 mp_sendrecv_dv                   28380 10.0    1.055    1.125    1.055    1.125
 xc_functional_eval                 325 11.0    0.001    0.002    0.815    1.100
 pbe_lda_eval                       325 12.0    0.815    1.098    0.815    1.098
 transfer_rs2pw_90                   66  9.0    0.166    0.206    0.754    1.052
 mp_sum_l                           890  5.9    0.748    1.017    0.748    1.017
 mp_isendrecv_dv                  56760 12.0    0.518    1.013    0.518    1.013
 transfer_pw2rs_90                   66 12.0    0.158    0.180    0.789    1.001
 integrate_four_center_load          66 10.0    0.000    0.001    0.724    0.995
 hfx_load_balance                     1 11.0    0.000    0.000    0.724    0.995
 hfx_load_balance_range               1 12.0    0.000    0.000    0.706    0.976
 pw_scatter_p                       720 12.1    0.919    0.968    0.919    0.968
 start_bse_calculation                1  7.0    0.000    0.000    0.931    0.931
 integrate_four_center_getP          66 10.0    0.024    0.026    0.896    0.919
 mp_sum_dm                          862  7.6    0.760    0.914    0.760    0.914
 pw_gather_p                        657 11.8    0.743    0.894    0.743    0.894
 fft_wrap_pw1pw2_30                 132 10.5    0.004    0.004    0.319    0.877
 parser_read_line                221207  4.0    0.077    0.083    0.844    0.857
 rs_grid_zero                       332 11.2    0.815    0.842    0.815    0.842
 mp_alltoall_z11v                   264 13.5    0.608    0.841    0.608    0.841
 dbt_remap                            8 10.0    0.002    0.002    0.828    0.828
 integrate_four_center_dist_KS       66 10.0    0.024    0.027    0.799    0.801
 dbt_nd_mp_comm                       8 11.0    0.000    0.000    0.768    0.799
 parser_read_line_low               237  5.0    0.072    0.310    0.767    0.781
 fft_wrap_pw1pw2_10                 132 10.5    0.001    0.001    0.683    0.777
 xz_to_yz                           132 11.0    0.008    0.014    0.515    0.744
 Vh_1c_gg_integrals                  66  8.0    0.009    0.210    0.263    0.729
 broadcast_input_information        237  6.0    0.177    0.197    0.695    0.712
 cube_transpose_2                   132 11.0    0.003    0.003    0.245    0.688
 pw_derive                          588 11.3    0.629    0.685    0.629    0.685
 dbt_copy                            12 10.2    0.000    0.001    0.111    0.680
 dbt_reshape                          8 11.8    0.010    0.013    0.096    0.665
 mp_waitall_2                        50 15.6    0.082    0.652    0.082    0.652
 dbt_communicate_buffer               8 12.8    0.002    0.002    0.082    0.650
 pw_poisson_rebuild                  66  9.0    0.000    0.000    0.578    0.602
 ps_wavelet_create                    1 10.0    0.000    0.000    0.578    0.602
 RS_z_slice_distribution              1 11.0    0.501    0.595    0.578    0.602
 mp_max_i                           584  2.8    0.178    0.601    0.178    0.601
 pw_integral_ab_c1d_c1d_gs           66  9.0    0.213    0.216    0.300    0.599
 compute_vec_Sigma_x_minus_vxc_       1  4.0    0.000    0.000    0.571    0.571
 pw_copy                            985 10.6    0.475    0.520    0.475    0.520
 mp_irecv_dm3                      2388 11.5    0.169    0.497    0.169    0.497
 diagonalize_C                        1  8.0    0.000    0.000    0.445    0.445
 qs_energies_init_hamiltonians        1  3.0    0.000    0.000    0.442    0.443
 transfer_pw2rs_10                   66 12.0    0.158    0.203    0.425    0.436
 cp_fm_power                          2  7.5    0.004    0.007    0.432    0.433
 build_core_hamiltonian_matrix        1  4.0    0.000    0.000    0.430    0.430
 overlap_condnum                      1  5.0    0.000    0.000    0.427    0.428
 transfer_rs2pw_10                   66  9.0    0.160    0.171    0.424    0.428
 mp_sum_i                            21  9.7    0.253    0.427    0.253    0.427
 create_hermitian_form_of_ABBA        1  8.0    0.000    0.000    0.425    0.426
 restraint_control                    1  2.0    0.000    0.000    0.252    0.426
 mp2_main_alloc_hfx                   1  4.0    0.174    0.426    0.174    0.426
 mp2_eri_3c_integrate                 1  7.0    0.001    0.002    0.090    0.420
 integrate_set_3c                   678  8.0    0.081    0.381    0.090    0.419
 pw_poisson_set                      67  8.9    0.002    0.002    0.394    0.406
 rpa_num_int_RPA_matrix_operati     100  7.0    0.001    0.003    0.380    0.381
 mp_isend_dm3                      2388 11.5    0.169    0.379    0.169    0.379
 mp_bcast_i_src                     948  7.0    0.256    0.379    0.256    0.379
 arnoldi_conjugate_gradient           5  6.0    0.009    0.010    0.371    0.371
 pw_copy_to_array                   657 11.8    0.275    0.361    0.275    0.361
 mp_rank_compare                   1377 12.9    0.326    0.336    0.326    0.336
 mp_bcast_am_src                    237  7.0    0.236    0.316    0.256    0.334
 calculate_dm_sparse                 65  6.0    0.000    0.001    0.304    0.316
 cp_dbcsr_plus_fm_fm_t               65  7.0    0.001    0.001    0.303    0.315
 init_scf_run                         1  3.0    0.000    0.000    0.285    0.285
 scf_env_initial_rho_setup            1  4.0    0.000    0.000    0.247    0.247
 pw_axpy                            655  9.3    0.216    0.242    0.216    0.242
 pw_copy_from_array                 720 12.1    0.188    0.241    0.188    0.241
 dbt_tas_multiply                     8 11.5    0.000    0.000    0.236    0.236
 dbcsr_sym_matrix_vector_mult      1282  7.0    0.020    0.022    0.150    0.235
 dbt_tas_total                        8 12.5    0.002    0.005    0.235    0.235
 qs_init_subsys                       1  2.0    0.005    0.006    0.227    0.227
 calc_mat_Q                         100  8.0    0.000    0.000    0.221    0.224
 update_ks_atom                      66  8.0    0.007    0.026    0.146    0.224
 dbcsr_multiply_generic              94  8.1    0.005    0.005    0.209    0.224
 mp_isend_dv                      20735 11.8    0.144    0.217    0.144    0.217
 contract_S_to_Q                    100  9.0    0.000    0.001    0.211    0.215
 dbcsr_complete_redistribute        222  8.4    0.011    0.016    0.202    0.208
 mp_bcast_dm                        528  9.0    0.139    0.201    0.139    0.201
 copy_dbcsr_to_fm                    88  6.4    0.002    0.002    0.181    0.194
 qs_env_setup                         1  3.0    0.000    0.000    0.182    0.191
 qs_env_rebuild_pw_env                2  3.5    0.000    0.000    0.181    0.190
 pw_env_rebuild                       1  5.0    0.001    0.001    0.181    0.189
 calculate_rho_atom_coeff            66  6.0    0.010    0.036    0.167    0.167
 offload_free_buffer                 74  8.4    0.051    0.157    0.051    0.157
 compute_Erpa_by_freq_int           100  8.0    0.001    0.001    0.147    0.147
 cp_fm_cholesky_decompose           102  9.0    0.145    0.147    0.145    0.147
 pw_zero                            392 10.3    0.129    0.145    0.129    0.145
 cp_fm_cholesky_invert              101  8.0    0.129    0.136    0.129    0.136
 pw_grid_setup                        4  6.0    0.000    0.000    0.127    0.136
 pw_grid_setup_internal               4  7.0    0.003    0.004    0.127    0.136
 yz_to_xz                           132 14.0    0.012    0.014    0.114    0.126
 copy_fm_to_dbcsr                   134  8.1    0.001    0.001    0.113    0.118
 dbcsr_add_d                       1976  7.1    0.002    0.002    0.015    0.117
 dbcsr_add_anytype                 1976  8.1    0.002    0.015    0.013    0.114
 dbt_tas_dbm                          8 13.5    0.000    0.000    0.114    0.114
 dbm_multiply                         8 15.5    0.086    0.114    0.086    0.114
 multiply_cannon                     94  9.1    0.010    0.011    0.094    0.106
 dbcsr_desymmetrize_deep             90  7.3    0.003    0.004    0.086    0.099
 cp_fm_to_fm_submat_general         112 10.1    0.087    0.099    0.087    0.099
 cp_fm_redistribute_start            71  8.0    0.072    0.074    0.092    0.097
 dbt_tas_mm_1N                        4 14.5    0.000    0.000    0.068    0.095
 dbt_tas_estimate_result_nze          4 12.0    0.001    0.002    0.091    0.091
 make_m2s                           188  9.1    0.005    0.005    0.083    0.090
 dbcsr_rep_row_to_rep_col_vec      1282  8.0    0.006    0.008    0.026    0.089
 dbcsr_finalize                    3372 10.8    0.007    0.029    0.025    0.088
 calculate_rho0_atom                198  9.0    0.084    0.087    0.084    0.087
 mp_alltoall_i22                    312  9.1    0.069    0.086    0.069    0.086
 dbcsr_col_vec_to_rep_row          1282  8.0    0.009    0.011    0.033    0.084
 vxc_of_r_new                       260  9.0    0.000    0.012    0.001    0.081
 multiply_cannon_loop                94 10.1    0.016    0.017    0.069    0.080
 mp_alltoall_i11v                   756  9.3    0.073    0.077    0.073    0.077
 pw_grid_sort                         4  8.0    0.043    0.045    0.067    0.070
 scale_and_distribute               132 10.0    0.064    0.069    0.064    0.069
 cp_fm_symm                          66  7.0    0.053    0.058    0.053    0.058
 pw_scale                           261  9.5    0.045    0.057    0.045    0.057
 mp_bcast_iv                        294  6.8    0.021    0.056    0.021    0.056
 postprocess_bse                      1  9.0    0.000    0.000    0.054    0.054
 mp_bcast_dv                       1353  9.0    0.015    0.053    0.015    0.053
 scf_post_calculation_gpw             1  3.0    0.000    0.000    0.053    0.053
 write_available_results              1  4.0    0.000    0.000    0.053    0.053
 write_mo_free_results                1  5.0    0.003    0.005    0.053    0.053
 make_images                        188 10.1    0.010    0.011    0.044    0.049
 mp_maxloc_dv                      1525  1.0    0.044    0.048    0.044    0.048
 mp_irecv_dv                      20662 11.8    0.023    0.048    0.023    0.048
 compute_max_radius                   1  6.0    0.046    0.048    0.046    0.048
 mixing_init                          1  5.0    0.041    0.043    0.044    0.045
 dbcsr_create_new                  7982  9.1    0.024    0.037    0.029    0.043
 dbcsr_merge_all                   2606 11.6    0.010    0.035    0.012    0.042
 hybrid_alltoall_any                278 10.9    0.004    0.005    0.035    0.041
 init_rho_atom                        1  3.0    0.001    0.001    0.033    0.039
 dbcsr_iterator_start             17305  8.9    0.022    0.032    0.025    0.038
 dbt_distribution_new_expert         76 10.1    0.001    0.002    0.037    0.038
 abc_contract                       678  9.0    0.008    0.038    0.008    0.038
 dbt_tas_replicate                    8 13.5    0.014    0.020    0.035    0.037
 dbcsr_copy                        5737  7.7    0.020    0.022    0.033    0.036
 mp_comm_split_direct                48 14.5    0.023    0.035    0.023    0.035
 create_harmonics_atom                3  4.0    0.029    0.034    0.029    0.034
 rs_scatter_matrices                 66  7.0    0.001    0.001    0.027    0.032
 dbt_tas_distribution_new           101 12.0    0.021    0.022    0.031    0.031
 mp_sum_iv                          289  9.6    0.026    0.029    0.026    0.029
 sort_shells                          4  9.0    0.024    0.027    0.024    0.027
 print_transition_amplitudes          1 10.0    0.000    0.000    0.027    0.027
 print_transition_amplitudes_co      50 11.0    0.000    0.000    0.027    0.027
 filter_eigvec_contrib               50 12.0    0.016    0.016    0.027    0.027
 dbt_split_blocks_generic            20  8.8    0.005    0.006    0.026    0.026
 dbcsr_sym_matrix_vector_mult_l    1282  8.0    0.005    0.022    0.009    0.026
 dbcsr_iterator_stop              17305  8.9    0.016    0.022    0.019    0.026
 mp2_main_free_hfx                    1  4.0    0.011    0.025    0.011    0.025
 dbcsr_crop_matrix                  325 10.0    0.002    0.002    0.023    0.025
 create_B                             1  8.0    0.000    0.000    0.023    0.025
 multiply_cannon_metrocomm3        2544 11.1    0.004    0.004    0.013    0.024
 get_multipoles_mo                    1 10.0    0.000    0.000    0.024    0.024
 calculate_hirshfeld_normalizat       1  6.0    0.000    0.002    0.022    0.024
 self_consistency_check              65  5.0    0.000    0.000    0.019    0.023
 cp_sm_mix                           65  6.0    0.000    0.002    0.018    0.023
 mp_max_d                            67  6.9    0.018    0.023    0.018    0.023
 create_integ_mat                     4  6.0    0.001    0.001    0.022    0.023
 hirshfeld_integration                1  6.0    0.000    0.002    0.022    0.022
 mp_cart_rank                     74724 10.0    0.020    0.022    0.020    0.022
 write_mo_set_to_restart             65  5.0    0.001    0.005    0.007    0.022
 dbt_create_new                      40  9.5    0.001    0.001    0.020    0.021
 dbt_tas_reshape                     10 13.6    0.000    0.000    0.019    0.021
 make_images_sizes                  188 11.1    0.000    0.000    0.019    0.021
 array2fm                             4  7.0    0.000    0.000    0.019    0.021
 cube_transpose_1                   132 14.0    0.002    0.002    0.018    0.021
 create_A                             1  8.0    0.001    0.001    0.020    0.020
 mp_alltoall_i44                    188 12.1    0.019    0.020    0.019    0.020
 convert_to_new_pgrid                24 13.5    0.007    0.009    0.018    0.020
 mp_bcast_iv_src                    237  7.0    0.006    0.020    0.006    0.020
 write_mo_set_low                     4  6.0    0.000    0.000    0.006    0.019
 cp_fm_write_unformatted              4  7.0    0.006    0.015    0.006    0.019
 dbm_reserve_blocks                  73 14.3    0.018    0.019    0.018    0.019
 dbcsr_copy_submatrix               325 11.0    0.003    0.003    0.018    0.019
 mp_cart_sub                        182  8.4    0.018    0.019    0.018    0.019
 dbt_tas_mm_2                         4 14.5    0.000    0.000    0.019    0.019
 hfx_create                           1  2.0    0.014    0.016    0.016    0.018
 mp_bcast_av                        763  1.0    0.005    0.008    0.016    0.018
 create_fast_row_vec_access        2564  8.0    0.010    0.012    0.016    0.018
 create_fast_col_vec_access        2564  8.0    0.010    0.011    0.016    0.017
 mp_alltoall_i                       41 13.9    0.014    0.017    0.014    0.017
 dbt_tas_create_split                44 13.2    0.000    0.000    0.016    0.016
 dbm_redistribute                    18 13.7    0.015    0.016    0.015    0.016
 dbt_tas_create_split_rows_or_c      44 14.2    0.000    0.000    0.016    0.016
 xc_pw_smooth                        65 10.0    0.000    0.000    0.014    0.016
 multiply_cannon_metrocomm4        2380 11.1    0.007    0.007    0.013    0.016
 pw_grid_assign                       4  8.0    0.014    0.015    0.016    0.016
 multiply_cannon_metrocomm2        2310 11.1    0.007    0.007    0.012    0.016
 dbcsr_work_create                 3074 10.7    0.003    0.010    0.005    0.016
 Q_trace_and_add_unit_matrix        100  8.0    0.001    0.001    0.011    0.015
 cp_fm_uplo_to_full                 104  8.0    0.006    0.015    0.006    0.015
 cp_fm_syrk                           3  7.0    0.013    0.014    0.013    0.014
 dbcsr_work_destroy_all            3074 11.6    0.003    0.010    0.004    0.014
 pw_grid_remap                        4  8.0    0.003    0.003    0.012    0.014
 multiply_cannon_multrec           2544 11.1    0.006    0.013    0.006    0.014
 qs_scf_ensure_work_matrices          1  3.0    0.000    0.000    0.014    0.014
 qs_scf_ensure_mos                    1  3.0    0.000    0.000    0.000    0.014
 cp_dbcsr_sm_fm_multiply              3 11.0    0.000    0.000    0.014    0.014
 multiply_cannon_metrocomm1        2544 11.1    0.003    0.003    0.008    0.014
 mp_send_dv                           4  8.0    0.001    0.013    0.001    0.013
 get_2c_integrals                     1  6.0    0.000    0.000    0.013    0.013
 hfx_load_balance_redist              1 12.0    0.010    0.011    0.012    0.013
 dbt_tas_reserve_blocks_index        65 13.2    0.000    0.000    0.012    0.013
 pw_grid_distribute                   4  8.0    0.010    0.010    0.012    0.013
 calc_fm_mat_S_rpa                  100  9.0    0.010    0.013    0.010    0.013
 fm_general_add_bse                   5 10.2    0.000    0.000    0.011    0.013
 dbt_tas_communicate_buffer          18 15.6    0.001    0.002    0.009    0.013
 make_images_data                   188 11.1    0.002    0.003    0.007    0.012
 dbcsr_data_release               39497 10.3    0.008    0.012    0.008    0.012
 mult_B_with_W                        1  8.0    0.000    0.000    0.012    0.012
 mp_sum_im                        10888 13.0    0.010    0.012    0.010    0.012
 mp_comm_split                       71  9.0    0.011    0.011    0.011    0.012
 qs_env_update_s_mstruct              1  4.0    0.000    0.000    0.011    0.012
 -------------------------------------------------------------------------------

 The number of warnings for this run is : 1
 
 -------------------------------------------------------------------------------
  **** **** ******  **  PROGRAM ENDED AT                 2025-04-11 17:14:02.168
 ***** ** ***  *** **   PROGRAM RAN ON                              i04r07c05s08
 **    ****   ******    PROGRAM RAN BY                                   di38fab
 ***** **    ** ** **   PROGRAM PROCESS ID                                113550
  **** **  *******  **  PROGRAM STOPPED IN /hppfs/scratch/04/di38fab/07_MOL_non_
                                           aug/05_MOL_non_aug/05_MOL/W4-11+ALK/c
                                           -hono/cc-pVQZ/GW+BSE
