 DBCSR| CPU Multiplication driver                                           XSMM (U)
 DBCSR| Multrec recursion limit                                              512 (U)
 DBCSR| Multiplication stack size                                           1000 (D)
 DBCSR| Maximum elements for images                                    UNLIMITED (U)
 DBCSR| Multiplicative factor virtual images                                   1 (U)
 DBCSR| Use multiplication densification                                       T (D)
 DBCSR| Multiplication size stacks                                             3 (U)
 DBCSR| Use memory pool for CPU allocation                                     F (U)
 DBCSR| Number of 3D layers                                               SINGLE (U)
 DBCSR| Use MPI memory allocation                                              F (U)
 DBCSR| Use RMA algorithm                                                      F (U)
 DBCSR| Use Communication thread                                               T (U)
 DBCSR| Communication thread load                                             60 (D)
 DBCSR| MPI: My process id                                                     0
 DBCSR| MPI: Number of processes                                              32
 DBCSR| OMP: Current number of threads                                         8
 DBCSR| OMP: Max number of threads                                             8
 DBCSR| Split modifier for TAS multiplication algorithm                  1.0E+00 (U)


  **** **** ******  **  PROGRAM STARTED AT               2025-06-23 15:08:42.343
 ***** ** ***  *** **   PROGRAM STARTED ON                 n2cn0549.ab2021.local
 **    ****   ******    PROGRAM STARTED BY                              metdyn02
 ***** **    ** ** **   PROGRAM PROCESS ID                                693922
  **** **  *******  **  PROGRAM STARTED IN /scratch/hpc-prf-metdyn/metdyn02_Remi
                                           /10_MOL/05_MOL/aUKBqsEOTmq69kFe5R_nOg
                                           /5k_set_final_qzvp/PAZROZ/mini-SZV/GW
                                           +BSE/1e-4

 CP2K| version string:                 CP2K version 2025.1 (Development Version)
 CP2K| source code revision number:                                  git:32ddf85
 CP2K| cp2kflags: omp libint fftw3 libxc libgrpp elpa parallel scalapack mpi_f08
 CP2K|             cosma xsmm plumed2 spglib libvori libbqb libvdwxc hdf5
 CP2K| is freely available from                            https://www.cp2k.org/
 CP2K| Program compiled at                         Mon May 19 11:32:37 CEST 2025
 CP2K| Program compiled on                                              n2login1
 CP2K| Program compiled for                                                local
 CP2K| Data directory path    /opt/software/pc2/EB-SW/software/CP2K/2024.1-foss-
 CP2K| Input file name                                                    GW.inp

 GLOBAL| Force Environment number                                              1
 GLOBAL| Basis set file name            /scratch/hpc-prf-metdyn/metdyn02_Remi/BA
 GLOBAL| Potential file name            /pc2/groups/hpc-prf-metdyn/metdyn02_Remi
 GLOBAL| MM Potential file name                                     MM_POTENTIAL
 GLOBAL| Coordinate file name                                      __STD_INPUT__
 GLOBAL| Method name                                                        CP2K
 GLOBAL| Project name                                                       MoS2
 GLOBAL| Run type                                                         ENERGY
 GLOBAL| FFT library                                                       FFTW3
 GLOBAL| Diagonalization library                                            ELPA
 GLOBAL| Cholesky decomposition library                                ScaLAPACK
 GLOBAL| DGEMM library                                                      BLAS
 GLOBAL| Minimum number of eigenvectors for ELPA usage                        16
 GLOBAL| Orthonormality check for eigenvectors                          DISABLED
 GLOBAL| Matrix multiplication library                                     COSMA
 GLOBAL| All-to-all communication in single precision                          F
 GLOBAL| FFTs using library dependent lengths                                  F
 GLOBAL| Grid backend                                                       AUTO
 GLOBAL| Global print level                                               MEDIUM
 GLOBAL| MPI I/O enabled                                                       T
 GLOBAL| Total number of message passing processes                            32
 GLOBAL| Number of threads for this process                                    8
 GLOBAL| This output is from process                                           0
 GLOBAL| OpenMP stack size per thread (OMP_STACKSIZE)                    default
 GLOBAL| CPU model name                          AMD EPYC 7763 64-Core Processor
 GLOBAL| CPUID                                                              1002

 MEMORY| system memory details [Kb]
 MEMORY|                        rank 0           min           max       average
 MEMORY| MemTotal            263897596     263897564     263897632     263897597
 MEMORY| MemFree             249595628     245873220     252050156     249709404
 MEMORY| Buffers                 52572         51140        127000        105699
 MEMORY| Cached                8947728       6770496      12565036       9036114
 MEMORY| Slab                  1882264       1360904       1996280       1701544
 MEMORY| SReclaimable           685564        303820        754016        515050
 MEMORY| MemLikelyFree       259281492     259236372     259508112     259366268


 *** Fundamental physical constants (SI units) ***

 *** Literature: B. J. Mohr and B. N. Taylor,
 ***             CODATA recommended values of the fundamental physical
 ***             constants: 2006, Web Version 5.1
 ***             http://physics.nist.gov/constants

 Speed of light in vacuum [m/s]                             2.99792458000000E+08
 Magnetic constant or permeability of vacuum [N/A**2]       1.25663706143592E-06
 Electric constant or permittivity of vacuum [F/m]          8.85418781762039E-12
 Planck constant (h) [J*s]                                  6.62606896000000E-34
 Planck constant (h-bar) [J*s]                              1.05457162825177E-34
 Elementary charge [C]                                      1.60217648700000E-19
 Electron mass [kg]                                         9.10938215000000E-31
 Electron g factor [ ]                                     -2.00231930436220E+00
 Proton mass [kg]                                           1.67262163700000E-27
 Fine-structure constant                                    7.29735253760000E-03
 Rydberg constant [1/m]                                     1.09737315685270E+07
 Avogadro constant [1/mol]                                  6.02214179000000E+23
 Boltzmann constant [J/K]                                   1.38065040000000E-23
 Atomic mass unit [kg]                                      1.66053878200000E-27
 Bohr radius [m]                                            5.29177208590000E-11

 *** Conversion factors ***

 [u] -> [a.u.]                                              1.82288848426455E+03
 [Angstrom] -> [Bohr] = [a.u.]                              1.88972613288564E+00
 [a.u.] = [Bohr] -> [Angstrom]                              5.29177208590000E-01
 [a.u.] -> [s]                                              2.41888432650478E-17
 [a.u.] -> [fs]                                             2.41888432650478E-02
 [a.u.] -> [J]                                              4.35974393937059E-18
 [a.u.] -> [N]                                              8.23872205491840E-08
 [a.u.] -> [K]                                              3.15774647902944E+05
 [a.u.] -> [kJ/mol]                                         2.62549961709828E+03
 [a.u.] -> [kcal/mol]                                       6.27509468713739E+02
 [a.u.] -> [Pa]                                             2.94210107994716E+13
 [a.u.] -> [bar]                                            2.94210107994716E+08
 [a.u.] -> [atm]                                            2.90362800883016E+08
 [a.u.] -> [eV]                                             2.72113838565563E+01
 [a.u.] -> [Hz]                                             6.57968392072181E+15
 [a.u.] -> [1/cm] (wave numbers)                            2.19474631370540E+05
 [a.u./Bohr**2] -> [1/cm]                                   5.14048714338585E+03
 

 CELL_TOP| Volume [angstrom^3]:                                     27000.000000
 CELL_TOP| Vector a [angstrom    30.000     0.000     0.000   |a| =    30.000000
 CELL_TOP| Vector b [angstrom     0.000    30.000     0.000   |b| =    30.000000
 CELL_TOP| Vector c [angstrom     0.000     0.000    30.000   |c| =    30.000000
 CELL_TOP| Angle (b,c), alpha [degree]:                                90.000000
 CELL_TOP| Angle (a,c), beta  [degree]:                                90.000000
 CELL_TOP| Angle (a,b), gamma [degree]:                                90.000000
 CELL_TOP| Numerically orthorhombic:                                         YES
 CELL_TOP| Periodicity                                                      NONE

 GENERATE|  Preliminary Number of Bonds generated:                             0
 GENERATE|  Achieved consistency in connectivity generation.

 CELL| Volume [angstrom^3]:                                         27000.000000
 CELL| Vector a [angstrom]:      30.000     0.000     0.000   |a| =    30.000000
 CELL| Vector b [angstrom]:       0.000    30.000     0.000   |b| =    30.000000
 CELL| Vector c [angstrom]:       0.000     0.000    30.000   |c| =    30.000000
 CELL| Angle (b,c), alpha [degree]:                                    90.000000
 CELL| Angle (a,c), beta  [degree]:                                    90.000000
 CELL| Angle (a,b), gamma [degree]:                                    90.000000
 CELL| Numerically orthorhombic:                                             YES
 CELL| Periodicity                                                          NONE

 CELL_REF| Volume [angstrom^3]:                                     27000.000000
 CELL_REF| Vector a [angstrom    30.000     0.000     0.000   |a| =    30.000000
 CELL_REF| Vector b [angstrom     0.000    30.000     0.000   |b| =    30.000000
 CELL_REF| Vector c [angstrom     0.000     0.000    30.000   |c| =    30.000000
 CELL_REF| Angle (b,c), alpha [degree]:                                90.000000
 CELL_REF| Angle (a,c), beta  [degree]:                                90.000000
 CELL_REF| Angle (a,b), gamma [degree]:                                90.000000
 CELL_REF| Numerically orthorhombic:                                         YES
 CELL_REF| Periodicity                                                      NONE

 *******************************************************************************
 *******************************************************************************
 **                                                                           **
 **     #####                         ##              ##                      **
 **    ##   ##            ##          ##              ##                      **
 **   ##     ##                       ##            ######                    **
 **   ##     ##  ##   ##  ##   #####  ##  ##   ####   ##    #####    #####    **
 **   ##     ##  ##   ##  ##  ##      ## ##   ##      ##   ##   ##  ##   ##   **
 **   ##  ## ##  ##   ##  ##  ##      ####     ###    ##   ######   ######    **
 **    ##  ###   ##   ##  ##  ##      ## ##      ##   ##   ##       ##        **
 **     #######   #####   ##   #####  ##  ##  ####    ##    #####   ##        **
 **           ##                                                    ##        **
 **                                                                           **
 **                                                ... make the atoms dance   **
 **                                                                           **
 **            Copyright (C) by CP2K developers group (2000-2025)             **
 **                      J. Chem. Phys. 152, 194103 (2020)                    **
 **                                                                           **
 *******************************************************************************

 DFT| Spin restricted Kohn-Sham (RKS) calculation                            RKS
 DFT| Multiplicity                                                             1
 DFT| Number of spin states                                                    1
 DFT| Charge                                                                   0
 DFT| Self-interaction correction (SIC)                                       NO
 DFT| Cutoffs: density                                              1.000000E-10
 DFT|          gradient                                             1.000000E-10
 DFT|          tau                                                  1.000000E-10
 DFT|          cutoff_smoothing_range                               0.000000E+00
 DFT| XC density smoothing                                                  NONE
 DFT| XC derivatives                                                          PW

 FUNCTIONAL| PBE:
 FUNCTIONAL| J.P.Perdew, K.Burke, M.Ernzerhof, Phys. Rev. Letter, vol. 77, n 18,
 FUNCTIONAL|  pp. 3865-3868, (1996)sx=0.750sc=1.000{spin unpolarized}           


 QS| Method:                                                                GAPW
 QS| Density plane wave grid type                        NON-SPHERICAL FULLSPACE
 QS| Number of grid levels:                                                    4
 QS| Density cutoff [a.u.]:                                                250.0
 QS| Multi grid cutoff [a.u.]: 1) grid level                               250.0
 QS|                           2) grid level                                83.3
 QS|                           3) grid level                                27.8
 QS|                           4) grid level                                 9.3
 QS| Grid level progression factor:                                          3.0
 QS| Relative density cutoff [a.u.]:                                        50.0
 QS| Interaction thresholds: eps_pgf_orb:                                1.0E-12
 QS|                         eps_filter_matrix:                          0.0E+00
 QS|                         eps_core_charge:                            1.0E-14
 QS|                         eps_rho_gspace:                             1.0E-12
 QS|                         eps_rho_rspace:                             1.0E-12
 QS|                         eps_gvg_rspace:                             1.0E-06
 QS|                         eps_ppl:                                    1.0E-02
 QS|                         eps_ppnl:                                   1.0E-08
 QS| GAPW|      One center basis from orbital basis primitives
 QS| GAPW|                   eps_fit:                                    1.0E-04
 QS| GAPW|                   eps_iso:                                    1.0E-12
 QS| GAPW|                   eps_svd:                                    1.0E-08
 QS| GAPW|                   eps_cpc:                                    1.0E-12
 QS| GAPW|   atom-r-grid: quadrature:                                     GC_LOG
 QS| GAPW|      atom-s-grid:  max l :                                          2
 QS| GAPW|      max_l_rho0 :                                                   2


 ATOMIC KIND INFORMATION

  1. Atomic kind: C                                     Number of atoms:       5

     Orbital Basis Set                                    aug-SZV-MOLOPT-ae-mini

       Number of orbital shell sets:                                           2
       Number of orbital shells:                                               5
       Number of primitive Cartesian functions:                                7
       Number of Cartesian basis functions:                                    9
       Number of spherical basis functions:                                    9
       Norm type:                                                              2

       Normalised Cartesian orbitals:

                        Set   Shell   Orbital            Exponent    Coefficient

                          1       1    2s                0.114558       0.000000
                                                         0.222289       0.161536
                                                         0.683483       0.214036
                                                         2.941249      -0.160017

                          1       2    3s                0.114558       0.000272
                                                         0.222289       0.256636
                                                         0.683483      -0.079244
                                                         2.941249       0.000032

                          1       3    3px               0.114558       0.000000
                                                         0.222289       0.085276
                                                         0.683483       0.538304
                                                         2.941249       0.856044
                          1       3    3py               0.114558       0.000000
                                                         0.222289       0.085276
                                                         0.683483       0.538304
                                                         2.941249       0.856044
                          1       3    3pz               0.114558       0.000000
                                                         0.222289       0.085276
                                                         0.683483       0.538304
                                                         2.941249       0.856044

                          1       4    4px               0.114558      -0.035043
                                                         0.222289      -0.159067
                                                         0.683483       0.106927
                                                         2.941249      -0.036832
                          1       4    4py               0.114558      -0.035043
                                                         0.222289      -0.159067
                                                         0.683483       0.106927
                                                         2.941249      -0.036832
                          1       4    4pz               0.114558      -0.035043
                                                         0.222289      -0.159067
                                                         0.683483       0.106927
                                                         2.941249      -0.036832

                          2       1    1s               71.616837       2.707801
                                                        13.045096       2.618883
                                                         3.530512       0.816191

     RI Auxiliary Basis Set             RI_aug-SZV-MOLOPT-ae-mini_N_RI_022_s_p_d

       Number of orbital shell sets:                                          10
       Number of orbital shells:                                              10
       Number of primitive Cartesian functions:                               10
       Number of Cartesian basis functions:                                   24
       Number of spherical basis functions:                                   22
       Norm type:                                                              2

       Normalised Cartesian orbitals:

                        Set   Shell   Orbital            Exponent    Coefficient

                          1       1    9dx2              0.319489       0.223463
                          1       1    9dxy              0.319489       0.387050
                          1       1    9dxz              0.319489       0.387050
                          1       1    9dy2              0.319489       0.223463
                          1       1    9dyz              0.319489       0.387050
                          1       1    9dz2              0.319489       0.223463

                          2       1    1s                0.357304       0.329373

                          3       1    7px               0.413040       0.471987
                          3       1    7py               0.413040       0.471987
                          3       1    7pz               0.413040       0.471987

                          4       1    2s                0.585920       0.477297

                          5       1    3s                0.962549       0.692592

                          6       1    8px               1.175289       1.744299
                          6       1    8py               1.175289       1.744299
                          6       1    8pz               1.175289       1.744299

                          7       1    4s                1.583093       1.005866

                          8       1   10dx2              1.968757       5.385741
                          8       1   10dxy              1.968757       9.328377
                          8       1   10dxz              1.968757       9.328377
                          8       1   10dy2              1.968757       5.385741
                          8       1   10dyz              1.968757       9.328377
                          8       1   10dz2              1.968757       5.385741

                          9       1    5s                2.602827       1.460475

                         10       1    6s                4.278785       2.120315

       Atomic covalent radius [Angstrom]:                                  0.770

       Atomic van der Waals radius [Angstrom]:                             1.700

     The atoms of this atomic kind are PAW atoms (GAPW):
       Hard Gaussian function radius:                                      1.512
       Rho0 radius:                                                        1.512
       Maximum GTO radius used for PAW projector construction:            24.566

     GAPW Soft Basis Set                             aug-SZV-MOLOPT-ae-mini_soft

       Number of orbital shell sets:                                           2
       Number of orbital shells:                                               5
       Number of primitive Cartesian functions:                                5
       Number of Cartesian basis functions:                                    9
       Number of spherical basis functions:                                    9
       Norm type:                                                              2

       Normalised Cartesian orbitals:

                        Set   Shell   Orbital            Exponent    Coefficient

                          1       1    2s                0.114558       0.000000
                                                         0.222289       0.161536
                                                         0.683483       0.214036
                                                         2.941249      -0.160017

                          1       2    3s                0.114558       0.000272
                                                         0.222289       0.256636
                                                         0.683483      -0.079244
                                                         2.941249       0.000032

                          1       3    3px               0.114558       0.000000
                                                         0.222289       0.085276
                                                         0.683483       0.538304
                                                         2.941249       0.856044
                          1       3    3py               0.114558       0.000000
                                                         0.222289       0.085276
                                                         0.683483       0.538304
                                                         2.941249       0.856044
                          1       3    3pz               0.114558       0.000000
                                                         0.222289       0.085276
                                                         0.683483       0.538304
                                                         2.941249       0.856044

                          1       4    4px               0.114558      -0.035043
                                                         0.222289      -0.159067
                                                         0.683483       0.106927
                                                         2.941249      -0.036832
                          1       4    4py               0.114558      -0.035043
                                                         0.222289      -0.159067
                                                         0.683483       0.106927
                                                         2.941249      -0.036832
                          1       4    4pz               0.114558      -0.035043
                                                         0.222289      -0.159067
                                                         0.683483       0.106927
                                                         2.941249      -0.036832

                          2       1    1s                3.530512       0.816191

     AE Potential information for                                            ALL

       Description:                                       All-electron potential
                                          Krack, Parrinello, PCCP 2, 2105 (2000)

       Gaussian exponent of the core charge distribution:               4.109048
       Electronic configuration (s p d ...):                           4   2   0

  2. Atomic kind: H                                     Number of atoms:       6

     Orbital Basis Set                                    aug-SZV-MOLOPT-ae-mini

       Number of orbital shell sets:                                           1
       Number of orbital shells:                                               4
       Number of primitive Cartesian functions:                                7
       Number of Cartesian basis functions:                                    6
       Number of spherical basis functions:                                    6
       Norm type:                                                              2

       Normalised Cartesian orbitals:

                        Set   Shell   Orbital            Exponent    Coefficient

                          1       1    1s                0.065428       0.000000
                                                         0.100112       0.016532
                                                         0.243077       0.102760
                                                         0.625955       0.185857
                                                         1.822143       0.188385
                                                         6.513144       0.143430
                                                        35.523221       0.095030

                          1       2    2s                0.065428       0.083549
                                                         0.100112       0.009605
                                                         0.243077       0.002524
                                                         0.625955       0.013457
                                                         1.822143       0.000000
                                                         6.513144       0.000000
                                                        35.523221       0.000000

                          1       3    3s                0.065428       0.037407
                                                         0.100112      -0.169070
                                                         0.243077      -0.018899
                                                         0.625955       0.012806
                                                         1.822143       0.000000
                                                         6.513144       0.000000
                                                        35.523221       0.000000

                          1       4    2px               0.065428       0.059908
                                                         0.100112      -0.023770
                                                         0.243077       0.000032
                                                         0.625955       0.017779
                                                         1.822143       0.000000
                                                         6.513144       0.000000
                                                        35.523221       0.000000
                          1       4    2py               0.065428       0.059908
                                                         0.100112      -0.023770
                                                         0.243077       0.000032
                                                         0.625955       0.017779
                                                         1.822143       0.000000
                                                         6.513144       0.000000
                                                        35.523221       0.000000
                          1       4    2pz               0.065428       0.059908
                                                         0.100112      -0.023770
                                                         0.243077       0.000032
                                                         0.625955       0.017779
                                                         1.822143       0.000000
                                                         6.513144       0.000000
                                                        35.523221       0.000000

     RI Auxiliary Basis Set             RI_aug-SZV-MOLOPT-ae_N_RI_007_s_p_d_f_g_

       Number of orbital shell sets:                                           5
       Number of orbital shells:                                               5
       Number of primitive Cartesian functions:                                5
       Number of Cartesian basis functions:                                    7
       Number of spherical basis functions:                                    7
       Norm type:                                                              2

       Normalised Cartesian orbitals:

                        Set   Shell   Orbital            Exponent    Coefficient

                          1       1    1s                0.148777       0.170731

                          2       1    5px               0.367452       0.407794
                          2       1    5py               0.367452       0.407794
                          2       1    5pz               0.367452       0.407794

                          3       1    2s                0.510503       0.430437

                          4       1    3s                1.106366       0.768837

                          5       1    4s                5.955292       2.716986

       Atomic covalent radius [Angstrom]:                                  0.320

       Atomic van der Waals radius [Angstrom]:                             1.090

     The atoms of this atomic kind are PAW atoms (GAPW):
       Hard Gaussian function radius:                                      1.200
       Rho0 radius:                                                        1.200
       Maximum GTO radius used for PAW projector construction:            24.566

     GAPW Soft Basis Set                             aug-SZV-MOLOPT-ae-mini_soft

       Number of orbital shell sets:                                           1
       Number of orbital shells:                                               4
       Number of primitive Cartesian functions:                                6
       Number of Cartesian basis functions:                                    6
       Number of spherical basis functions:                                    6
       Norm type:                                                              2

       Normalised Cartesian orbitals:

                        Set   Shell   Orbital            Exponent    Coefficient

                          1       1    1s                0.065428       0.000000
                                                         0.100112       0.016532
                                                         0.243077       0.102760
                                                         0.625955       0.185857
                                                         1.822143       0.188385
                                                         6.513144       0.000000

                          1       2    2s                0.065428       0.083549
                                                         0.100112       0.009605
                                                         0.243077       0.002524
                                                         0.625955       0.013457
                                                         1.822143       0.000000
                                                         6.513144       0.000000

                          1       3    3s                0.065428       0.037407
                                                         0.100112      -0.169070
                                                         0.243077      -0.018899
                                                         0.625955       0.012806
                                                         1.822143       0.000000
                                                         6.513144       0.000000

                          1       4    2px               0.065428       0.059908
                                                         0.100112      -0.023770
                                                         0.243077       0.000032
                                                         0.625955       0.017779
                                                         1.822143       0.000000
                                                         6.513144       0.000000
                          1       4    2py               0.065428       0.059908
                                                         0.100112      -0.023770
                                                         0.243077       0.000032
                                                         0.625955       0.017779
                                                         1.822143       0.000000
                                                         6.513144       0.000000
                          1       4    2pz               0.065428       0.059908
                                                         0.100112      -0.023770
                                                         0.243077       0.000032
                                                         0.625955       0.017779
                                                         1.822143       0.000000
                                                         6.513144       0.000000

     AE Potential information for                                            ALL

       Description:                                       All-electron potential
                                          Krack, Parrinello, PCCP 2, 2105 (2000)

       Gaussian exponent of the core charge distribution:              12.500000
       Electronic configuration (s p d ...):                           1   0   0

  3. Atomic kind: O                                     Number of atoms:       4

     Orbital Basis Set                                    aug-SZV-MOLOPT-ae-mini

       Number of orbital shell sets:                                           2
       Number of orbital shells:                                               5
       Number of primitive Cartesian functions:                                7
       Number of Cartesian basis functions:                                    9
       Number of spherical basis functions:                                    9
       Norm type:                                                              2

       Normalised Cartesian orbitals:

                        Set   Shell   Orbital            Exponent    Coefficient

                          1       1    1s                0.162491       0.000000
                                                         0.380388       0.241685
                                                         1.169596       0.320234
                                                         5.033151      -0.239413

                          1       2    2s                0.162491       0.289618
                                                         0.380388      -0.257800
                                                         1.169596      -0.000000
                                                         5.033151      -0.000284

                          1       3    2px               0.162491       0.000000
                                                         0.380388       0.166902
                                                         1.169596       1.053568
                                                         5.033151       1.675450
                          1       3    2py               0.162491       0.000000
                                                         0.380388       0.166902
                                                         1.169596       1.053568
                                                         5.033151       1.675450
                          1       3    2pz               0.162491       0.000000
                                                         0.380388       0.166902
                                                         1.169596       1.053568
                                                         5.033151       1.675450

                          1       4    3px               0.162491       0.166510
                                                         0.380388      -0.081234
                                                         1.169596      -0.994066
                                                         5.033151       0.014231
                          1       4    3py               0.162491       0.166510
                                                         0.380388      -0.081234
                                                         1.169596      -0.994066
                                                         5.033151       0.014231
                          1       4    3pz               0.162491       0.166510
                                                         0.380388      -0.081234
                                                         1.169596      -0.994066
                                                         5.033151       0.014231

                          2       1    1s              130.709321       4.251922
                                                        23.808866       4.112298
                                                         6.443608       1.281622

     RI Auxiliary Basis Set             RI_aug-SZV-MOLOPT-ae-mini_N_RI_028_s_p_d

       Number of orbital shell sets:                                          10
       Number of orbital shells:                                              10
       Number of primitive Cartesian functions:                               10
       Number of Cartesian basis functions:                                   31
       Number of spherical basis functions:                                   28
       Norm type:                                                              2

       Normalised Cartesian orbitals:

                        Set   Shell   Orbital            Exponent    Coefficient

                          1       1    1s                0.357489       0.329502

                          2       1    5px               0.409748       0.467289
                          2       1    5py               0.409748       0.467289
                          2       1    5pz               0.409748       0.467289

                          3       1    8dx2              0.443879       0.397304
                          3       1    8dxy              0.443879       0.688150
                          3       1    8dxz              0.443879       0.688150
                          3       1    8dy2              0.443879       0.397304
                          3       1    8dyz              0.443879       0.688150
                          3       1    8dz2              0.443879       0.397304

                          4       1    2s                1.054753       0.741777

                          5       1    6px               1.767021       2.903971
                          5       1    6py               1.767021       2.903971
                          5       1    6pz               1.767021       2.903971

                          6       1    9dx2              2.138835       6.226152
                          6       1    9dxy              2.138835      10.784012
                          6       1    9dxz              2.138835      10.784012
                          6       1    9dy2              2.138835       6.226152
                          6       1    9dyz              2.138835      10.784012
                          6       1    9dz2              2.138835       6.226152

                          7       1    3s                3.026195       1.635245

                          8       1   10dx2              8.012449      62.805651
                          8       1   10dxy              8.012449     108.782579
                          8       1   10dxz              8.012449     108.782579
                          8       1   10dy2              8.012449      62.805651
                          8       1   10dyz              8.012449     108.782579
                          8       1   10dz2              8.012449      62.805651

                          9       1    4s                8.361610       3.504512

                         10       1    7px               8.422062      20.450934
                         10       1    7py               8.422062      20.450934
                         10       1    7pz               8.422062      20.450934

       Atomic covalent radius [Angstrom]:                                  0.730

       Atomic van der Waals radius [Angstrom]:                             1.520

     The atoms of this atomic kind are PAW atoms (GAPW):
       Hard Gaussian function radius:                                      1.512
       Rho0 radius:                                                        1.512
       Maximum GTO radius used for PAW projector construction:            24.566

     GAPW Soft Basis Set                             aug-SZV-MOLOPT-ae-mini_soft

       Number of orbital shell sets:                                           2
       Number of orbital shells:                                               5
       Number of primitive Cartesian functions:                                3
       Number of Cartesian basis functions:                                    9
       Number of spherical basis functions:                                    9
       Norm type:                                                              2

       Normalised Cartesian orbitals:

                        Set   Shell   Orbital            Exponent    Coefficient

                          1       1    1s                0.162491       0.000000
                                                         0.380388       0.241685
                                                         1.169596       0.320234

                          1       2    2s                0.162491       0.289618
                                                         0.380388      -0.257800
                                                         1.169596      -0.000000

                          1       3    2px               0.162491       0.000000
                                                         0.380388       0.166902
                                                         1.169596       1.053568
                          1       3    2py               0.162491       0.000000
                                                         0.380388       0.166902
                                                         1.169596       1.053568
                          1       3    2pz               0.162491       0.000000
                                                         0.380388       0.166902
                                                         1.169596       1.053568

                          1       4    3px               0.162491       0.166510
                                                         0.380388      -0.081234
                                                         1.169596      -0.994066
                          1       4    3py               0.162491       0.166510
                                                         0.380388      -0.081234
                                                         1.169596      -0.994066
                          1       4    3pz               0.162491       0.166510
                                                         0.380388      -0.081234
                                                         1.169596      -0.994066

                          2       1    1s         

     AE Potential information for                                            ALL

       Description:                                       All-electron potential
                                          Krack, Parrinello, PCCP 2, 2105 (2000)

       Gaussian exponent of the core charge distribution:               8.154466
       Electronic configuration (s p d ...):                           4   4   0


 MOLECULE KIND INFORMATION


 All atoms are their own molecule, skipping detailed information


 TOTAL NUMBERS AND MAXIMUM NUMBERS

  Total number of            - Atomic kinds:                                   3
                             - Atoms:                                         15
                             - Shell sets:                                    24
                             - Shells:                                        69
                             - Primitive Cartesian functions:                105
                             - Cartesian basis functions:                    117
                             - Spherical basis functions:                    117

  Maximum angular momentum of the orbital basis functions:                     1


 MODULE QUICKSTEP: ATOMIC COORDINATES IN ANGSTROM

   Atom Kind Element         X             Y             Z       Z(eff)     Mass
      1    1 C     6     14.883624     15.161761     13.662581   6.0000  12.0107
      2    2 H     1     14.271453     14.537030     13.003025   1.0000   1.0079
      3    3 O     8     13.461602     12.684902     16.996975   8.0000  15.9994
      4    3 O     8     14.731290     13.241488     15.195487   8.0000  15.9994
      5    3 O     8     14.620978     14.639698     16.952460   8.0000  15.9994
      6    1 C     6     14.192531     13.446743     16.436606   6.0000  12.0107
      7    3 O     8     14.037681     16.118730     14.299808   8.0000  15.9994
      8    1 C     6     14.771488     16.573636     15.436538   6.0000  12.0107
      9    2 H     1     14.072898     17.035598     16.142649   1.0000   1.0079
     10    1 C     6     15.532604     14.363699     14.796370   6.0000  12.0107
     11    2 H     1     16.538398     13.998846     14.556168   1.0000   1.0079
     12    2 H     1     15.669997     15.665493     13.066969   1.0000   1.0079
     13    2 H     1     15.538813     17.315098     15.139376   1.0000   1.0079
     14    1 C     6     15.456092     15.330783     16.011312   6.0000  12.0107
     15    2 H     1     16.416242     15.543575     16.496325   1.0000   1.0079



 SCF PARAMETERS         Density guess:                                    ATOMIC
                        --------------------------------------------------------
                        max_scf:                                             500
                        max_scf_history:                                       0
                        max_diis:                                              4
                        --------------------------------------------------------
                        eps_scf:                                        1.00E-06
                        eps_scf_history:                                0.00E+00
                        eps_diis:                                       1.00E-01
                        eps_eigval:                                     1.00E-05
                        --------------------------------------------------------
                        level_shift [a.u.]:                             0.000000
                        added MOs                                        83    0
                        --------------------------------------------------------
                        Mixing method:                            BROYDEN_MIXING
                                                charge density mixing in g-space
                        --------------------------------------------------------
                        No outer SCF

 PW_GRID| Information for grid number                                          1
 PW_GRID| Grid distributed over                                    32 processors
 PW_GRID| Real space group dimensions                                    32    1
 PW_GRID| the grid is blocked:                                                NO
 PW_GRID| Cutoff [a.u.]                                                    250.0
 PW_GRID| spherical cutoff:                                                   NO
 PW_GRID|   Bounds   1           -202     202                Points:         405
 PW_GRID|   Bounds   2           -202     202                Points:         405
 PW_GRID|   Bounds   3           -202     202                Points:         405
 PW_GRID| Volume element (a.u.^3)  0.2743E-02     Volume (a.u.^3)    182205.0337
 PW_GRID| Grid span                                                    FULLSPACE
 PW_GRID|   Distribution                         Average         Max         Min
 PW_GRID|   G-Vectors                          2075941.4     2076030     2075625
 PW_GRID|   G-Rays                                5125.8        5126        5125
 PW_GRID|   Real Space Points                  2075941.4     2132325     1968300

 PW_GRID| Information for grid number                                          2
 PW_GRID| Number of the reference grid                                         1
 PW_GRID| Grid distributed over                                    32 processors
 PW_GRID| Real space group dimensions                                    32    1
 PW_GRID| the grid is blocked:                                                NO
 PW_GRID| Cutoff [a.u.]                                                     83.3
 PW_GRID| spherical cutoff:                                                   NO
 PW_GRID|   Bounds   1           -120     119                Points:         240
 PW_GRID|   Bounds   2           -120     119                Points:         240
 PW_GRID|   Bounds   3           -120     119                Points:         240
 PW_GRID| Volume element (a.u.^3)  0.1318E-01     Volume (a.u.^3)    182205.0337
 PW_GRID| Grid span                                                    FULLSPACE
 PW_GRID|   Distribution                         Average         Max         Min
 PW_GRID|   G-Vectors                           432000.0      432480      431760
 PW_GRID|   G-Rays                                1800.0        1802        1799
 PW_GRID|   Real Space Points                   432000.0      460800      403200

 PW_GRID| Information for grid number                                          3
 PW_GRID| Number of the reference grid                                         1
 PW_GRID| Grid distributed over                                    32 processors
 PW_GRID| Real space group dimensions                                    32    1
 PW_GRID| the grid is blocked:                                                NO
 PW_GRID| Cutoff [a.u.]                                                     27.8
 PW_GRID| spherical cutoff:                                                   NO
 PW_GRID|   Bounds   1            -67      67                Points:         135
 PW_GRID|   Bounds   2            -67      67                Points:         135
 PW_GRID|   Bounds   3            -67      67                Points:         135
 PW_GRID| Volume element (a.u.^3)  0.7406E-01     Volume (a.u.^3)    182205.0337
 PW_GRID| Grid span                                                    FULLSPACE
 PW_GRID|   Distribution                         Average         Max         Min
 PW_GRID|   G-Vectors                            76886.7       77085       76680
 PW_GRID|   G-Rays                                 569.5         571         568
 PW_GRID|   Real Space Points                    76886.7       91125       72900

 PW_GRID| Information for grid number                                          4
 PW_GRID| Number of the reference grid                                         1
 PW_GRID| Grid distributed over                                    32 processors
 PW_GRID| Real space group dimensions                                    32    1
 PW_GRID| the grid is blocked:                                                NO
 PW_GRID| Cutoff [a.u.]                                                      9.3
 PW_GRID| spherical cutoff:                                                   NO
 PW_GRID|   Bounds   1            -40      39                Points:          80
 PW_GRID|   Bounds   2            -40      39                Points:          80
 PW_GRID|   Bounds   3            -40      39                Points:          80
 PW_GRID| Volume element (a.u.^3)  0.3559         Volume (a.u.^3)    182205.0337
 PW_GRID| Grid span                                                    FULLSPACE
 PW_GRID|   Distribution                         Average         Max         Min
 PW_GRID|   G-Vectors                            16000.0       16160       15920
 PW_GRID|   G-Rays                                 200.0         202         199
 PW_GRID|   Real Space Points                    16000.0       19200       12800

 POISSON| Solver                                                         WAVELET
 POISSON| Wavelet| Scaling function                                           40
 POISSON| Periodicity                                                       NONE

 RS_GRID| Information for grid number                                          1
 RS_GRID|   Bounds   1           -202     202                Points:         405
 RS_GRID|   Bounds   2           -202     202                Points:         405
 RS_GRID|   Bounds   3           -202     202                Points:         405
 RS_GRID| Real space distribution over                                  2 groups
 RS_GRID| Real space distribution along direction                              1
 RS_GRID| Border size                                                         32
 RS_GRID| Real space distribution over                                  4 groups
 RS_GRID| Real space distribution along direction                              2
 RS_GRID| Border size                                                         32
 RS_GRID| Real space distribution over                                  4 groups
 RS_GRID| Real space distribution along direction                              3
 RS_GRID| Border size                                                         32
 RS_GRID|   Distribution                         Average         Max         Min
 RS_GRID|   Planes                                 266.5         267         266
 RS_GRID|   Distribution                         Average         Max         Min
 RS_GRID|   Planes                                 165.2         166         165
 RS_GRID|   Distribution                         Average         Max         Min
 RS_GRID|   Planes                                 165.2         166         165

 RS_GRID| Information for grid number                                          2
 RS_GRID|   Bounds   1           -120     119                Points:         240
 RS_GRID|   Bounds   2           -120     119                Points:         240
 RS_GRID|   Bounds   3           -120     119                Points:         240
 RS_GRID| Real space distribution over                                  2 groups
 RS_GRID| Real space distribution along direction                              1
 RS_GRID| Border size                                                         34
 RS_GRID| Real space distribution over                                  4 groups
 RS_GRID| Real space distribution along direction                              2
 RS_GRID| Border size                                                         34
 RS_GRID| Real space distribution over                                  4 groups
 RS_GRID| Real space distribution along direction                              3
 RS_GRID| Border size                                                         34
 RS_GRID|   Distribution                         Average         Max         Min
 RS_GRID|   Planes                                 188.0         188         188
 RS_GRID|   Distribution                         Average         Max         Min
 RS_GRID|   Planes                                 128.0         128         128
 RS_GRID|   Distribution                         Average         Max         Min
 RS_GRID|   Planes                                 128.0         128         128

 RS_GRID| Information for grid number                                          3
 RS_GRID|   Bounds   1            -67      67                Points:         135
 RS_GRID|   Bounds   2            -67      67                Points:         135
 RS_GRID|   Bounds   3            -67      67                Points:         135
 RS_GRID| Real space fully replicated
 RS_GRID| Group size                                                           1

 RS_GRID| Information for grid number                                          4
 RS_GRID|   Bounds   1            -40      39                Points:          80
 RS_GRID|   Bounds   2            -40      39                Points:          80
 RS_GRID|   Bounds   3            -40      39                Points:          80
 RS_GRID| Real space fully replicated
 RS_GRID| Group size                                                           1

  HFX_INFO| Replica ID:                                                        1
  HFX_INFO| FRACTION:                                               0.2500000000
  HFX_INFO| Interaction Potential:                                       COULOMB
  HFX_INFO| EPS_SCHWARZ:                                                 1.0E-10
  HFX_INFO| EPS_SCHWARZ_FORCES                                           1.0E-08
  HFX_INFO| EPS_STORAGE_SCALING:                                         1.0E+00
  HFX_INFO| NBINS:                                                            64
  HFX_INFO| BLOCK_SIZE:                                                        1
  HFX_INFO| Number of periodic shells considered:                           NONE
  HFX_INFO| Number of periodic cells considered:                            NONE

 
 RI-RPA| using GPW style
 

 OVERLAP MATRIX CONDITION NUMBER
 1-Norm Condition Number (Estimate)
   CN : |A|*|A^-1|:  2.126E+001 *  6.914E+003   = 1.470E+005  Log(1-CN):  5.1672
 1-Norm and 2-Norm Condition Numbers using Diagonalization
   CN : |A|*|A^-1|:  2.126E+001 *  6.932E+003   = 1.473E+005  Log(1-CN):  5.1683
   CN : max/min ev:  1.155E+001 /  3.073E-004   = 3.759E+004  Log(2-CN):  4.5750

 Number of electrons:                                                         68
 Number of occupied orbitals:                                                 34
 Number of molecular orbitals:                                               117

 Number of orbital functions:                                                117
 Number of independent orbital functions:                                    117

 Extrapolation method: initial_guess

 Atomic guess: The first density matrix is obtained in terms of atomic orbitals
               and electronic configurations assigned to each atomic kind

 Guess for atomic kind: C

 Electronic structure
    Total number of core electrons                                          0.00
    Total number of valence electrons                                       6.00
    Total number of electrons                                               6.00
    Multiplicity                                                   not specified
    S      2.00  2.00
    P      2.00


 *******************************************************************************
                  Iteration          Convergence                     Energy [au]
 *******************************************************************************
                          1        0.110940                     -36.966846197933
                          2        0.618479E-01                 -36.973380131832
                          3        0.312040E-03                 -36.976281169724
                          4        0.543046E-05                 -36.976281232084
                          5        0.506043E-09                 -36.976281232104

 Energy components [Hartree]           Total Energy ::          -36.976281232104
                                        Band Energy ::          -20.794821508944
                                     Kinetic Energy ::           36.488299270274
                                   Potential Energy ::          -73.464580502377
                                      Virial (-V/T) ::            2.013373655983
                                        Core Energy ::          -49.914993802944
                                          XC Energy ::           -4.745664989265
                                     Coulomb Energy ::           17.684377560105

 Orbital energies  State     L     Occupation   Energy[a.u.]          Energy[eV]

                       1     0          2.000      -9.777613         -266.062376
                       2     0          2.000      -0.465310          -12.661731

                       1     1          2.000      -0.154488           -4.203828


 Total Electron Density at R=0:                                        77.917232

 Guess for atomic kind: H

 Electronic structure
    Total number of core electrons                                          0.00
    Total number of valence electrons                                       1.00
    Total number of electrons                                               1.00
    Multiplicity                                                   not specified
    S      1.00


 *******************************************************************************
                  Iteration          Convergence                     Energy [au]
 *******************************************************************************
                          1        0.962691E-02                  -0.444368661081
                          2        0.109107E-02                  -0.444473520424
                          3        0.117094E-03                  -0.444476577889
                          4        0.851579E-07                  -0.444476596085

 Energy components [Hartree]           Total Energy ::           -0.444476596085
                                        Band Energy ::           -0.233451424826
                                     Kinetic Energy ::            0.431260327433
                                   Potential Energy ::           -0.875736923518
                                      Virial (-V/T) ::            2.030645686170
                                        Core Energy ::           -0.494218917327
                                          XC Energy ::           -0.231476335377
                                     Coulomb Energy ::            0.281218656618

 Orbital energies  State     L     Occupation   Energy[a.u.]          Energy[eV]

                       1     0          1.000      -0.233451           -6.352536


 Total Electron Density at R=0:                                         0.270947

 Guess for atomic kind: O

 Electronic structure
    Total number of core electrons                                          0.00
    Total number of valence electrons                                       8.00
    Total number of electrons                                               8.00
    Multiplicity                                                   not specified
    S      2.00  2.00
    P      4.00


 *******************************************************************************
                  Iteration          Convergence                     Energy [au]
 *******************************************************************************
                          1        0.863863                     -73.413444334034
                          2        0.475457                     -73.501944400060
                          3        0.103564E-02                 -73.557269561969
                          4        0.190635E-03                 -73.557270044022
                          5        0.125020E-05                 -73.557270061478
                          6        0.707527E-06                 -73.557270061479

 Energy components [Hartree]           Total Energy ::          -73.557270061479
                                        Band Energy ::          -40.781734047812
                                     Kinetic Energy ::           71.485611268676
                                   Potential Energy ::         -145.042881330154
                                      Virial (-V/T) ::            2.028980080831
                                        Core Energy ::         -101.135954089231
                                          XC Energy ::           -7.619849605917
                                     Coulomb Energy ::           35.198533633670

 Orbital energies  State     L     Occupation   Energy[a.u.]          Energy[eV]

                       1     0          2.000     -18.754322         -510.331066
                       2     0          2.000      -0.915098          -24.901079

                       1     1          4.000      -0.360723           -9.815782


 Total Electron Density at R=0:                                       193.617216
 Re-scaling the density matrix to get the right number of electrons
                  # Electrons              Trace(P)               Scaling factor
                           68                68.000                        1.000


 SCF WAVEFUNCTION OPTIMIZATION

  Step     Update method      Time    Convergence         Total energy    Change
  ------------------------------------------------------------------------------

  HFX_MEM_INFO| Est. max. program size before HFX [MiB]:                    2165
  HFX_MEM_INFO| Number of cart. primitive ERI's calculated:           1300636160
  HFX_MEM_INFO| Number of sph. ERI's calculated:                        26817933
  HFX_MEM_INFO| Number of sph. ERI's stored in-core:                    26817933
  HFX_MEM_INFO| Number of sph. ERI's stored on disk:                           0
  HFX_MEM_INFO| Number of sph. ERI's calculated on the fly:                    0
  HFX_MEM_INFO| Total memory consumption ERI's RAM [MiB]:                     37
  HFX_MEM_INFO| Whereof max-vals [MiB]:                                        2
  HFX_MEM_INFO| Total compression factor ERI's RAM:                         5.62
  HFX_MEM_INFO| Total memory consumption ERI's disk [MiB]:                     0
  HFX_MEM_INFO| Total compression factor ERI's disk:                        0.00
  HFX_MEM_INFO| Size of density/Fock matrix [MiB]:                             0
  HFX_MEM_INFO| Size of buffers [MiB]:                                         0
  HFX_MEM_INFO| Est. max. program size after HFX  [MiB]:                    2802

     1 NoMix/Diag. 0.10E+00    2.5     1.07841283      -491.3842665236 -4.91E+02
     2 Broy./Diag. 0.10E+00    1.6     0.19245553      -485.8550455435  5.53E+00
     3 Broy./Diag. 0.10E+00    1.6     0.07516726      -487.3583594131 -1.50E+00
     4 Broy./Diag. 0.10E+00    1.6     0.23133562      -488.1281150864 -7.70E-01
     5 Broy./Diag. 0.10E+00    1.6     0.10649635      -488.5888028276 -4.61E-01
     6 Broy./Diag. 0.10E+00    1.6     0.01782945      -488.5404522069  4.84E-02
     7 Broy./Diag. 0.10E+00    1.6     0.07628078      -488.8805936405 -3.40E-01
     8 Broy./Diag. 0.10E+00    1.6     0.01144081      -488.9020271619 -2.14E-02
     9 Broy./Diag. 0.10E+00    1.7     0.01722594      -488.8936595696  8.37E-03
    10 Broy./Diag. 0.10E+00    1.7     0.02737431      -488.9908651453 -9.72E-02
    11 Broy./Diag. 0.10E+00    1.7     0.00671064      -488.9539796892  3.69E-02
    12 Broy./Diag. 0.10E+00    1.7     0.00769308      -488.8917055698  6.23E-02
    13 Broy./Diag. 0.10E+00    1.7     0.00466023      -488.8552214455  3.65E-02
    14 Broy./Diag. 0.10E+00    1.7     0.00107162      -488.8324219071  2.28E-02
    15 Broy./Diag. 0.10E+00    1.7     0.00961386      -488.8306105000  1.81E-03
    16 Broy./Diag. 0.10E+00    1.7     0.00279730      -488.8201091892  1.05E-02
    17 Broy./Diag. 0.10E+00    1.7     0.00203074      -488.8080543608  1.21E-02
    18 Broy./Diag. 0.10E+00    1.7     0.00255877      -488.8107650020 -2.71E-03
    19 Broy./Diag. 0.10E+00    1.7     0.00160770      -488.8051444651  5.62E-03
    20 Broy./Diag. 0.10E+00    1.7     0.00125964      -488.8021289645  3.02E-03
    21 Broy./Diag. 0.10E+00    1.7     0.00335642      -488.8143297110 -1.22E-02
    22 Broy./Diag. 0.10E+00    1.7     0.00112554      -488.8151959850 -8.66E-04
    23 Broy./Diag. 0.10E+00    1.7     0.00047548      -488.8095485154  5.65E-03
    24 Broy./Diag. 0.10E+00    1.7     0.00095484      -488.8002193567  9.33E-03
    25 Broy./Diag. 0.10E+00    1.7     0.00035586      -488.7979051757  2.31E-03
    26 Broy./Diag. 0.10E+00    1.7     0.00078968      -488.8008190271 -2.91E-03
    27 Broy./Diag. 0.10E+00    1.7     0.00054087      -488.8038673065 -3.05E-03
    28 Broy./Diag. 0.10E+00    1.7     0.00047191      -488.8045173917 -6.50E-04
    29 Broy./Diag. 0.10E+00    1.7     0.00044702      -488.8045476548 -3.03E-05
    30 Broy./Diag. 0.10E+00    1.7     0.00029827      -488.8046214365 -7.38E-05
    31 Broy./Diag. 0.10E+00    1.7     0.00026354      -488.8039201287  7.01E-04
    32 Broy./Diag. 0.10E+00    1.7     0.00075351      -488.8030624832  8.58E-04
    33 Broy./Diag. 0.10E+00    1.7     0.00071885      -488.8028953790  1.67E-04
    34 Broy./Diag. 0.10E+00    1.7     0.00096862      -488.8028955820 -2.03E-07
    35 Broy./Diag. 0.10E+00    1.7     0.00042554      -488.8027396934  1.56E-04
    36 Broy./Diag. 0.10E+00    1.7     0.00035719      -488.8031914192 -4.52E-04
    37 Broy./Diag. 0.10E+00    1.7     0.00012283      -488.8032106903 -1.93E-05
    38 Broy./Diag. 0.10E+00    1.7     0.00012274      -488.8030241161  1.87E-04
    39 Broy./Diag. 0.10E+00    1.7     0.00031043      -488.8028988213  1.25E-04
    40 Broy./Diag. 0.10E+00    1.7     0.00010891      -488.8029269812 -2.82E-05
    41 Broy./Diag. 0.10E+00    1.7     0.00011558      -488.8028711212  5.59E-05
    42 Broy./Diag. 0.10E+00    1.7     0.00025509      -488.8028130936  5.80E-05
    43 Broy./Diag. 0.10E+00    1.7     0.00003066      -488.8030130989 -2.00E-04
    44 Broy./Diag. 0.10E+00    1.7     0.00003003      -488.8031176032 -1.05E-04
    45 Broy./Diag. 0.10E+00    1.7     0.00009679      -488.8031384444 -2.08E-05
    46 Broy./Diag. 0.10E+00    1.7     0.00002583      -488.8031676094 -2.92E-05
    47 Broy./Diag. 0.10E+00    1.7     0.00001648      -488.8031795367 -1.19E-05
    48 Broy./Diag. 0.10E+00    1.7     0.00002619      -488.8031712592  8.28E-06
    49 Broy./Diag. 0.10E+00    1.7     0.00000985      -488.8031837337 -1.25E-05
    50 Broy./Diag. 0.10E+00    1.7     0.00004861      -488.8032295434 -4.58E-05
    51 Broy./Diag. 0.10E+00    1.7     0.00000733      -488.8032481369 -1.86E-05
    52 Broy./Diag. 0.10E+00    1.7     0.00000814      -488.8032324231  1.57E-05
    53 Broy./Diag. 0.10E+00    1.7     0.00002523      -488.8032010151  3.14E-05
    54 Broy./Diag. 0.10E+00    1.7     0.00000631      -488.8031856564  1.54E-05
    55 Broy./Diag. 0.10E+00    1.7     0.00000315      -488.8031847462  9.10E-07
    56 Broy./Diag. 0.10E+00    1.7     0.00000555      -488.8031830008  1.75E-06
    57 Broy./Diag. 0.10E+00    1.7     0.00001300      -488.8031883324 -5.33E-06
    58 Broy./Diag. 0.10E+00    1.7     0.00000947      -488.8032010472 -1.27E-05
    59 Broy./Diag. 0.10E+00    1.7     0.00000472      -488.8032071370 -6.09E-06
    60 Broy./Diag. 0.10E+00    1.7     0.00000031      -488.8032043850  2.75E-06

  *** SCF run converged in    60 steps ***


  Electronic density on regular grids:        -50.4459170595       17.5540829405
  Core density on regular grids:               68.0000000000       -0.0000000000
  Hard and soft densities (Lebedev):         -173.3882781514     -155.8342030459
  Total Rho_soft + Rho1_hard - Rho1_soft      -67.9999921649
  Total charge density (r-space):               0.0000078351
  Total Rho_soft + Rho0_soft (g-space):         0.0000076348

  Overlap energy of the core charge distribution:               0.00000707526477
  Self energy of the core charge distribution:               -445.66705775994654
  Core Hamiltonian energy:                                    -57.95910418720678
  Hartree energy:                                             143.43402835604485
  Exchange-correlation energy:                                -19.06692273827672
  Hartree-Fock Exchange energy:                               -15.11244983535857

  GAPW| Exc from hard and soft atomic rho1:                   -28.39985487546630
  GAPW| local Eh = 1 center integrals:                        -66.03185042006187

  Total energy:                                              -488.80320438500718

 !-----------------------------------------------------------------------------!
                     Mulliken Population Analysis

 #  Atom  Element  Kind  Atomic population                           Net charge
       1     C        1          5.816994                              0.183006
       2     H        2          0.819373                              0.180627
       3     O        3          8.874042                             -0.874042
       4     O        3          8.785729                             -0.785729
       5     O        3          8.785734                             -0.785734
       6     C        1          4.380607                              1.619393
       7     O        3          8.699530                             -0.699530
       8     C        1          5.817010                              0.182990
       9     H        2          0.819396                              0.180604
      10     C        1          5.768624                              0.231376
      11     H        2          0.863854                              0.136146
      12     H        2          0.968343                              0.031657
      13     H        2          0.968328                              0.031672
      14     C        1          5.768624                              0.231376
      15     H        2          0.863814                              0.136186
 # Total charge                             68.000000                 -0.000000

 !-----------------------------------------------------------------------------!

 !-----------------------------------------------------------------------------!
                           Hirshfeld Charges

  #Atom  Element  Kind  Ref Charge     Population                    Net charge
      1       C      1       6.000          6.653                        -0.653
      2       H      2       1.000          0.508                         0.492
      3       O      3       8.000          8.433                        -0.433
      4       O      3       8.000          8.418                        -0.418
      5       O      3       8.000          8.418                        -0.418
      6       C      1       6.000          5.353                         0.647
      7       O      3       8.000          8.507                        -0.507
      8       C      1       6.000          6.653                        -0.653
      9       H      2       1.000          0.508                         0.492
     10       C      1       6.000          6.227                        -0.227
     11       H      2       1.000          0.515                         0.485
     12       H      2       1.000          0.525                         0.475
     13       H      2       1.000          0.525                         0.475
     14       C      1       6.000          6.227                        -0.227
     15       H      2       1.000          0.515                         0.485

  Total Charge                                                            0.015
 !-----------------------------------------------------------------------------!


 RI-RPA section
 --------------

  Used number of processes per group:                                          1
  Maximum allowed memory usage per MPI process:                      1024.00 MiB
  RI_INFO| Cholesky decomposition group size:                                  4
  RI_INFO| Number of groups for auxiliary basis functions                     32

  RI_INFO| RI metric:                                                    COULOMB
  RI_INFO| Number of auxiliary basis functions:                              264
  GENERAL_INFO| Number of basis functions:                                   117
  GENERAL_INFO| Number of occupied orbitals:                                  34
  GENERAL_INFO| Number of virtual orbitals:                                   83
  RI_INFO| Total memory for (ia|K) integrals:                           5.68 MiB
  RI_INFO| Total memory for G0W0-(nm|K) integrals:                     27.57 MiB
  RI_INFO| Total memory for (ij|K) integrals:                           2.33 MiB
  RI_INFO| Total memory for (ab|K) integrals:                          13.88 MiB
  RI_INFO| Group size for frequency integration:                              32
  INTEG_INFO| Clenshaw-Curtius quadrature
  INTEG_INFO| Number of integration points:                                  100
  INTEG_INFO| Number of integration points per RPA group:                    100
  MATRIX_INFO| Number row processes:                                           2
  MATRIX_INFO| Number column processes:                                       16
  MATRIX_INFO| Row block size:                                                66
  MATRIX_INFO| Column block size:                                             88
  INTEG_INFO| Scaling parameter:                                         0.20000
  INTEG_INFO| Started with Integration point   1 of 100
[...]
 xc_pw_derive                       360 11.0    0.002    0.002   16.553   17.130
 qs_rho_update_rho_low               61  5.0    0.001    0.001   15.708   15.708
 calculate_rho_elec                  61  6.0    0.477    0.491   15.654   15.655
 mp_alltoall_z22v                  1272 13.9   10.853   13.142   10.853   13.142
 gspace_mixing                       59  5.0    0.462    0.474   12.370   12.370
 xc_pw_divergence                    60 10.0    0.001    0.001   11.248   11.810
 xc_rho_set_and_dset_create          60 10.0    0.343    0.374   10.911   11.675
 broyden_mixing                      59  6.0    9.326    9.512    9.560    9.582
 density_rs2pw                       61  7.0    0.002    0.002    8.576    8.900
 x_to_yz                            665 13.1    2.198    2.496    7.709    8.450
 yz_to_x                            607 12.8    1.648    1.787    6.990    8.419
 grid_collocate_task_list            61  7.0    6.510    6.830    6.510    6.830
 sum_up_and_integrate                61  8.0    0.001    0.001    6.809    6.826
 integrate_v_rspace                  61  9.0    0.001    0.001    6.714    6.737
 potential_pw2rs                     61 10.0    0.014    0.015    6.531    6.543
 transfer_pw2rs                     306 10.6    0.003    0.004    4.905    4.955
 prepare_gapw_den                    61  8.0    0.001    0.001    4.551    4.604
 transfer_rs2pw                     306  8.4    0.004    0.005    4.258    4.572
 put_rho0_on_grid                    61  9.0    0.486    0.505    4.484    4.537
 mp_waitany                        8096 11.5    3.763    4.259    3.763    4.259
 mp_alltoall_d45                     62 10.0    2.237    3.585    2.237    3.585
 transfer_pw2rs_250                 123 10.9    1.279    1.362    3.279    3.360
 mp2_main                             1  3.0    0.000    0.000    3.198    3.235
 pw_gather_p                        607 11.8    2.888    3.163    2.888    3.163
 pw_scatter_p                       665 12.1    3.023    3.152    3.023    3.152
 transfer_rs2pw_250                 123 10.0    1.187    1.253    2.809    3.123
 xc_functional_eval                 300 10.5    0.001    0.001    2.248    2.982
 pbe_lda_eval                       300 11.5    2.248    2.981    2.248    2.981
 pw_derive                          543 11.3    2.275    2.407    2.275    2.407
 mp_alltoall_d11v                  1264  9.6    1.162    2.348    1.162    2.348
 hfx_ks_matrix                       61  8.0    0.001    0.001    2.310    2.328
 integrate_four_center               61  9.0    1.276    1.683    2.305    2.322
 mp2_gpw_main                         1  4.0    0.000    0.000    2.191    2.196
 qs_energies_init_hamiltonians        1  3.0    0.000    0.000    2.095    2.095
 cp_fm_diag_elpa                     66  7.0    0.000    0.000    2.027    2.032
 rpa_ri_compute_en                    1  5.0    0.000    0.000    2.020    2.020
 rpa_num_int                          1  6.0    0.000    0.000    1.999    2.000
 integrate_vhg0_rspace               61  8.0    0.018    0.027    1.922    1.951
 build_core_hamiltonian_matrix        1  4.0    0.000    0.000    1.861    1.861
 overlap_condnum                      1  5.0    0.000    0.000    1.860    1.861
 cp_fm_diag_elpa_base                66  8.0    0.890    0.999    1.050    1.854
 mp_sum_d                          3092  6.5    1.067    1.837    1.067    1.837
 cp_fm_power                          2  7.5    0.007    0.008    1.476    1.583
 pw_copy                            910 10.6    1.473    1.562    1.473    1.562
 pw_poisson_set                      62  8.9    0.001    0.001    1.143    1.219
 cp2k_distribution_to_z_slices       61  9.0    0.573    0.670    1.103    1.204
 cp_fm_redistribute_end              66  8.0    0.605    1.197    0.608    1.199
 pw_copy_to_array                   607 11.8    0.970    1.049    0.970    1.049
 start_bse_calculation                1  7.0    0.000    0.000    1.039    1.039
 cp_fm_redistribute_start            66  8.0    0.359    0.989    0.369    1.002
 pw_axpy                            605  9.3    0.912    0.989    0.912    0.989
 fft_wrap_pw1pw2_90                 122 10.5    0.042    0.045    0.774    0.942
 mp_waitall_1                     15010 12.1    0.742    0.940    0.742    0.940
 cp_fm_uplo_to_full                 170  8.2    0.113    0.933    0.113    0.933
 pw_copy_from_array                 665 12.1    0.836    0.909    0.836    0.909
 compute_vec_Sigma_x_minus_vxc_       1  4.0    0.000    0.000    0.859    0.859
 rs_grid_zero                       307 11.1    0.808    0.851    0.808    0.851
 transfer_pw2rs_90                   61 12.0    0.185    0.199    0.741    0.849
 transfer_rs2pw_90                   61  9.0    0.190    0.207    0.704    0.829
 transfer_pw2rs_30                   61 12.0    0.420    0.457    0.741    0.819
 mp_sync                            731  9.4    0.431    0.800    0.431    0.800
 pw_integral_ab_c1d_c1d_gs           61  9.0    0.659    0.671    0.727    0.766
 compute_GW_self_energy             100  7.0    0.000    0.000    0.749    0.754
 compute_GW_self_energy_deep        100  8.0    0.442    0.447    0.691    0.696
 mp_bcast_b_src                     127  7.1    0.097    0.692    0.097    0.692
 init_scf_run                         1  3.0    0.000    0.000    0.609    0.609
 scf_env_initial_rho_setup            1  4.0    0.000    0.000    0.603    0.603
 copy_dbcsr_to_fm                   107  6.8    0.001    0.001    0.435    0.587
 transfer_rs2pw_30                   61  9.0    0.198    0.229    0.553    0.584
 pw_poisson_rebuild                  61  9.0    0.000    0.000    0.532    0.549
 ps_wavelet_create                    1 10.0    0.000    0.000    0.532    0.549
 RS_z_slice_distribution              1 11.0    0.461    0.494    0.532    0.549
 mp_sendrecv_dv                    3782 10.0    0.498    0.546    0.498    0.546
 qs_scf_new_mos                      60  5.0    0.001    0.001    0.504    0.536
 parallel_gemm_fm                   340  8.6    0.000    0.000    0.498    0.533
 parallel_gemm_fm_cosma             340  9.6    0.498    0.533    0.498    0.533
 create_hermitian_form_of_ABBA        1  8.0    0.000    0.000    0.508    0.513
 pw_zero                            362 10.3    0.420    0.442    0.420    0.442
 diagonalize_C                        1  8.0    0.000    0.000    0.437    0.437
 dbcsr_complete_redistribute        231  8.5    0.007    0.008    0.345    0.397
 qs_init_subsys                       1  2.0    0.001    0.001    0.381    0.381
 qs_env_setup                         1  3.0    0.000    0.000    0.379    0.379
 qs_env_rebuild_pw_env                2  3.5    0.000    0.000    0.379    0.379
 pw_env_rebuild                       1  5.0    0.000    0.000    0.379    0.379
 pw_grid_setup                        4  6.0    0.000    0.000    0.373    0.374
 pw_grid_setup_internal               4  7.0    0.005    0.006    0.373    0.374
 create_qs_kind_set                   1  2.0    0.000    0.000    0.345    0.346
 read_qs_kind                         3  3.0    0.032    0.136    0.345    0.346
 mp_alltoall_i11v                   802  9.4    0.192    0.345    0.192    0.345
 mp_sum_dm                         2810  7.6    0.224    0.333    0.224    0.333
 parser_read_line                 12688  4.0    0.002    0.002    0.313    0.317
 parser_read_line_low                22  5.0    0.007    0.183    0.311    0.315
 pw_grid_sort                         4  8.0    0.219    0.224    0.307    0.315
 broadcast_input_information         22  6.0    0.004    0.004    0.305    0.315
 eigensolver_symm                    61  6.0    0.004    0.005    0.304    0.306
 cp_fm_norm                           2  6.0    0.153    0.304    0.153    0.304
 mp_bcast_i_src                      88  7.0    0.290    0.302    0.290    0.302
 mp_isend_dv                       7426 11.8    0.196    0.297    0.196    0.297
 integrate_four_center_main          61 10.0    0.010    0.013    0.287    0.295
 integrate_four_center_bin         4114 11.0    0.276    0.282    0.276    0.282
 mp_max_i                           613  2.7    0.126    0.267    0.126    0.267
 mp_alltoall_i22                    340  9.3    0.173    0.243    0.173    0.243
 fft_wrap_pw1pw2_30                 122 10.5    0.009    0.010    0.183    0.242
 dbcsr_desymmetrize_deep            109  7.7    0.002    0.002    0.236    0.237
 qs_env_update_s_mstruct              1  4.0    0.000    0.000    0.041    0.234
 qs_create_task_list                  1  5.0    0.000    0.000    0.041    0.234
 generate_qs_task_list                1  6.0    0.000    0.000    0.041    0.234
 distribute_tasks                     1  7.0    0.000    0.000    0.041    0.234
 calculate_ecore_overlap              1  4.0    0.000    0.000    0.193    0.233
 create_local_tasks                   1  8.0    0.000    0.000    0.040    0.233
 mp_alltoall_l11v                     1  9.0    0.040    0.233    0.040    0.233
 powell_optimize                 153118 11.0    0.221    0.227    0.221    0.227
 Vh_1c_gg_integrals                  61  8.0    0.005    0.010    0.111    0.220
 calculate_vxc_atom                  61  8.0    0.025    0.049    0.213    0.213
 mp_sum_dv                         5543  9.9    0.136    0.207    0.136    0.207
 dbcsr_multiply_generic             137  8.1    0.003    0.003    0.170    0.204
 rpa_num_int_RPA_matrix_operati     100  7.0    0.000    0.001    0.202    0.202
 calculate_dm_sparse                 60  6.0    0.000    0.000    0.168    0.199
 cp_dbcsr_plus_fm_fm_t               60  7.0    0.001    0.001    0.168    0.198
 transfer_rs2pw_10                   61  9.0    0.045    0.050    0.188    0.194
 grid_integrate_task_list            61 10.0    0.085    0.188    0.085    0.188
 pw_scale                           241  9.5    0.172    0.187    0.172    0.187
 hybrid_alltoall_any                383 11.1    0.002    0.002    0.055    0.178
 calc_screening_functions             1 10.0    0.044    0.045    0.172    0.177
 rs_gather_matrices                  61 10.0    0.001    0.001    0.097    0.165
 mp2_ri_gpw_compute_in                1  5.0    0.000    0.000    0.164    0.164
 mp2_main_alloc_hfx                   1  4.0    0.126    0.163    0.126    0.163
 scale_and_distribute               122 10.0    0.145    0.161    0.145    0.161
 arnoldi_conjugate_gradient           5  6.0    0.004    0.005    0.157    0.157
 calc_mat_Q                         100  8.0    0.000    0.000    0.154    0.156
 contract_S_to_Q                    100  9.0    0.000    0.000    0.153    0.156
 multiply_cannon                    137  9.1    0.006    0.006    0.112    0.150
 transfer_pw2rs_10                   61 12.0    0.061    0.067    0.140    0.150
 calc_pair_dist_radii                 1 10.0    0.041    0.043    0.134    0.137
 mp2_ri_gpw_compute_in_loop           1  6.0    0.000    0.000    0.136    0.136
 cp_fm_to_fm_submat_general         112 10.1    0.083    0.134    0.083    0.134
 gaVxcgb_GC                         120  9.0    0.034    0.124    0.034    0.124
 make_m2s                           274  9.1    0.002    0.002    0.041    0.106
 contract_B_L                         4  7.0    0.000    0.001    0.093    0.099
 dbcsr_sym_matrix_vector_mult      1185  7.0    0.009    0.009    0.090    0.094
 make_images                        274 10.1    0.004    0.004    0.027    0.092
 sort_shells                          4  9.0    0.087    0.091    0.087    0.091
 make_images_data                   274 11.1    0.001    0.002    0.012    0.076
 mp_sum_i                            19  9.5    0.037    0.076    0.037    0.076
 restraint_control                    1  2.0    0.000    0.000    0.037    0.076
 mp_allgather_i34                   137 10.1    0.067    0.075    0.067    0.075
 dbt_total                            8  8.0    0.000    0.000    0.073    0.073
 xc_pw_smooth                        60 10.0    0.000    0.000    0.061    0.070
 dbt_contract                         4  9.0    0.000    0.000    0.065    0.068
 multiply_cannon_loop               137 10.1    0.002    0.002    0.036    0.067
 mixing_init                          1  5.0    0.064    0.067    0.067    0.067
 dbcsr_add_d                       1823  7.1    0.001    0.001    0.017    0.063
 dbcsr_add_anytype                 1823  8.1    0.002    0.007    0.016    0.062
 scf_post_calculation_gpw             1  3.0    0.000    0.000    0.062    0.062
 write_available_results              1  4.0    0.000    0.000    0.061    0.062
 write_mo_free_results                1  5.0    0.009    0.010    0.061    0.061
 cp_fm_cholesky_decompose           102  9.0    0.056    0.059    0.056    0.059
 cp_fm_cholesky_invert              101  8.0    0.055    0.058    0.055    0.058
 calculate_rho_atom                 183  9.0    0.044    0.057    0.044    0.057
 self_consistency_check              60  5.0    0.000    0.000    0.032    0.054
 cp_sm_mix                           60  6.0    0.000    0.000    0.032    0.054
 multiply_cannon_metrocomm3         592 11.1    0.001    0.001    0.015    0.054
 mp_max_d                            62  6.9    0.032    0.053    0.032    0.053
 calculate_rho_atom_coeff            61  6.0    0.011    0.012    0.053    0.053
 mp_isend_dm3                      2208 11.5    0.038    0.052    0.038    0.052
 fft_wrap_pw1pw2_10                 122 10.5    0.002    0.002    0.044    0.052
 fm_general_add_bse                   5 10.2    0.000    0.000    0.048    0.051
 write_mo_set_to_restart             60  5.0    0.002    0.047    0.046    0.049
 multiply_cannon_metrocomm1         592 11.1    0.000    0.000    0.007    0.047
 write_mo_set_low                     3  6.0    0.000    0.000    0.044    0.046
 cp_fm_write_unformatted              3  7.0    0.044    0.046    0.044    0.046
 dbcsr_finalize                    2855 10.2    0.004    0.012    0.020    0.045
 compute_Erpa_by_freq_int           100  8.0    0.000    0.000    0.042    0.042
 create_B                             1  8.0    0.000    0.000    0.037    0.041
 create_A                             1  8.0    0.001    0.002    0.037    0.038
 mp_isendrecv_dv                   7564 12.0    0.018    0.038    0.018    0.038
 cp_fm_syrk                           3  7.0    0.034    0.038    0.034    0.038
 update_ks_atom                      61  8.0    0.008    0.010    0.025    0.037
 multiply_cannon_metrocomm4         455 11.1    0.001    0.001    0.003    0.037
 mp_cart_create                     437 10.3    0.030    0.036    0.030    0.036
 dbcsr_col_vec_to_rep_row          1185  8.0    0.004    0.004    0.032    0.036
 vxc_of_r_new                       240  9.0    0.001    0.005    0.009    0.034
 dbt_copy                            12 10.0    0.000    0.000    0.030    0.033
 pw_grid_assign                       4  8.0    0.031    0.032    0.032    0.033
 dbt_tas_multiply                     8 11.5    0.000    0.000    0.032    0.032
 dbt_tas_total                        8 12.5    0.000    0.000    0.032    0.032
 mp_bcast_dm                       1830  9.0    0.017    0.030    0.017    0.030
 dbt_reshape                          8 11.5    0.001    0.001    0.027    0.030
 mp_bcast_dv                       1249  9.0    0.022    0.027    0.022    0.027
 dbt_communicate_buffer               8 12.5    0.000    0.000    0.025    0.027
 get_2c_integrals                     1  6.0    0.000    0.000    0.022    0.027
 pw_grid_remap                        4  8.0    0.005    0.005    0.019    0.027
 hirshfeld_integration                1  6.0    0.001    0.004    0.027    0.027
 dbt_remap                            8 10.0    0.001    0.001    0.025    0.025
 dbcsr_iterator_start             16185  8.9    0.013    0.019    0.016    0.025
 mp2_eri_3c_integrate                 1  7.0    0.001    0.001    0.016    0.024
 calculate_hirshfeld_normalizat       1  6.0    0.001    0.004    0.023    0.024
 integrate_set_3c                  1716  8.0    0.013    0.019    0.015    0.023
 dbt_pgrid_create_expert             84 10.8    0.000    0.000    0.017    0.023
 mp_irecv_dv                       7427 11.8    0.006    0.023    0.006    0.023
 mp_sum_im3                           4  9.0    0.014    0.022    0.014    0.022
 mp_sum_l                          1005  6.2    0.019    0.022    0.019    0.022
 copy_fm_to_dbcsr                   124  8.1    0.000    0.000    0.020    0.022
 create_integ_mat                     4  6.0    0.000    0.000    0.020    0.021
 offload_free_buffer                 69  8.3    0.014    0.021    0.014    0.021
 dbcsr_merge_all                   2360 10.9    0.007    0.016    0.011    0.021
 mp2_main_free_hfx                    1  4.0    0.013    0.020    0.013    0.020
 fm_general_add_bse_5_comm_buff       5 11.2    0.000    0.000    0.015    0.020
 communicate_buffer                   5 12.2    0.000    0.000    0.015    0.020
 mp_waitall_2                        50 15.8    0.012    0.019    0.012    0.019
 array2fm                             4  7.0    0.000    0.000    0.018    0.019
 postprocess_bse                      1  9.0    0.000    0.000    0.019    0.019
 cp_fm_symm                          61  7.0    0.018    0.019    0.018    0.019
 mp_rank_compare                   1272 12.9    0.016    0.018    0.016    0.018
 integrate_four_center_load          61 10.0    0.000    0.000    0.016    0.018
 mult_B_with_W                        1  8.0    0.000    0.000    0.016    0.018
 hfx_load_balance                     1 11.0    0.000    0.000    0.016    0.018
 dbcsr_rep_row_to_rep_col_vec      1185  8.0    0.003    0.003    0.013    0.017
 dbcsr_copy                        5291  7.6    0.009    0.010    0.015    0.016
 dbcsr_work_create                 2788 10.2    0.004    0.010    0.006    0.015
 mp_comm_split_direct                48 14.5    0.010    0.015    0.010    0.015
 integrate_four_center_dist_KS       61 10.0    0.002    0.003    0.013    0.014
 cholesky_decomp                      1  7.0    0.000    0.000    0.013    0.014
 dbcsr_create_new                  7172  9.0    0.009    0.010    0.012    0.013
 fm_general_add_bse_1_setup           5 11.2    0.012    0.013    0.012    0.013
 mp_bcast_am_src                     22  7.0    0.010    0.012    0.011    0.013
 dbcsr_iterator_stop              16185  8.9    0.008    0.010    0.009    0.012
 mp_maxloc_dv                      1513  1.0    0.009    0.012    0.009    0.012
 invert_mat                           1  7.0    0.000    0.000    0.008    0.012
 cp_fm_triangular_invert              1  8.0    0.008    0.012    0.008    0.012
 integrate_four_center_getP          61 10.0    0.002    0.002    0.011    0.012
 dbcsr_work_destroy_all            2788 11.1    0.003    0.008    0.004    0.012
 rs_grid_create                      67  8.7    0.000    0.000    0.003    0.012
 dbt_distribution_new_expert         76 10.1    0.000    0.000    0.011    0.012
 offload_create_buffer               69  9.7    0.003    0.011    0.003    0.011
 dbt_tas_dbm                          8 13.5    0.000    0.000    0.011    0.011
 -------------------------------------------------------------------------------

 The number of warnings for this run is : 1
 
 -------------------------------------------------------------------------------
  **** **** ******  **  PROGRAM ENDED AT                 2025-06-23 15:10:34.583
 ***** ** ***  *** **   PROGRAM RAN ON                     n2cn0549.ab2021.local
 **    ****   ******    PROGRAM RAN BY                                  metdyn02
 ***** **    ** ** **   PROGRAM PROCESS ID                                693922
  **** **  *******  **  PROGRAM STOPPED IN /scratch/hpc-prf-metdyn/metdyn02_Remi
                                           /10_MOL/05_MOL/aUKBqsEOTmq69kFe5R_nOg
                                           /5k_set_final_qzvp/PAZROZ/mini-SZV/GW
                                           +BSE/1e-4
