 DBCSR| CPU Multiplication driver                                           XSMM (U)
 DBCSR| Multrec recursion limit                                              512 (U)
 DBCSR| Multiplication stack size                                           1000 (D)
 DBCSR| Maximum elements for images                                    UNLIMITED (U)
 DBCSR| Multiplicative factor virtual images                                   1 (U)
 DBCSR| Use multiplication densification                                       T (D)
 DBCSR| Multiplication size stacks                                             3 (U)
 DBCSR| Use memory pool for CPU allocation                                     F (U)
 DBCSR| Number of 3D layers                                               SINGLE (U)
 DBCSR| Use MPI memory allocation                                              F (U)
 DBCSR| Use RMA algorithm                                                      F (U)
 DBCSR| Use Communication thread                                               T (U)
 DBCSR| Communication thread load                                             60 (D)
 DBCSR| MPI: My process id                                                     0
 DBCSR| MPI: Number of processes                                              32
 DBCSR| OMP: Current number of threads                                         8
 DBCSR| OMP: Max number of threads                                             8
 DBCSR| Split modifier for TAS multiplication algorithm                  1.0E+00 (U)


  **** **** ******  **  PROGRAM STARTED AT               2025-06-23 14:43:05.746
 ***** ** ***  *** **   PROGRAM STARTED ON                 n2cn0189.ab2021.local
 **    ****   ******    PROGRAM STARTED BY                              metdyn02
 ***** **    ** ** **   PROGRAM PROCESS ID                                493515
  **** **  *******  **  PROGRAM STARTED IN /scratch/hpc-prf-metdyn/metdyn02_Remi
                                           /10_MOL/05_MOL/aUKBqsEOTmq69kFe5R_nOg
                                           /5k_set_final_qzvp/EFAYAL/mini-SZV/TD
                                           DFT/RILIM

 CP2K| version string:                 CP2K version 2025.1 (Development Version)
 CP2K| source code revision number:                                  git:32ddf85
 CP2K| cp2kflags: omp libint fftw3 libxc libgrpp elpa parallel scalapack mpi_f08
 CP2K|             cosma xsmm plumed2 spglib libvori libbqb libvdwxc hdf5
 CP2K| is freely available from                            https://www.cp2k.org/
 CP2K| Program compiled at                         Mon May 19 11:32:37 CEST 2025
 CP2K| Program compiled on                                              n2login1
 CP2K| Program compiled for                                                local
 CP2K| Data directory path    /opt/software/pc2/EB-SW/software/CP2K/2024.1-foss-
 CP2K| Input file name                                                    GW.inp

 GLOBAL| Force Environment number                                              1
 GLOBAL| Basis set file name            /scratch/hpc-prf-metdyn/metdyn02_Remi/BA
 GLOBAL| Potential file name            /pc2/groups/hpc-prf-metdyn/metdyn02_Remi
 GLOBAL| MM Potential file name                                     MM_POTENTIAL
 GLOBAL| Coordinate file name                                      __STD_INPUT__
 GLOBAL| Method name                                                        CP2K
 GLOBAL| Project name                                                       MoS2
 GLOBAL| Run type                                                         ENERGY
 GLOBAL| FFT library                                                       FFTW3
 GLOBAL| Diagonalization library                                            ELPA
 GLOBAL| Cholesky decomposition library                                ScaLAPACK
 GLOBAL| DGEMM library                                                      BLAS
 GLOBAL| Minimum number of eigenvectors for ELPA usage                        16
 GLOBAL| Orthonormality check for eigenvectors                          DISABLED
 GLOBAL| Matrix multiplication library                                     COSMA
 GLOBAL| All-to-all communication in single precision                          F
 GLOBAL| FFTs using library dependent lengths                                  F
 GLOBAL| Grid backend                                                       AUTO
 GLOBAL| Global print level                                               MEDIUM
 GLOBAL| MPI I/O enabled                                                       T
 GLOBAL| Total number of message passing processes                            32
 GLOBAL| Number of threads for this process                                    8
 GLOBAL| This output is from process                                           0
 GLOBAL| OpenMP stack size per thread (OMP_STACKSIZE)                    default
 GLOBAL| CPU model name                          AMD EPYC 7763 64-Core Processor
 GLOBAL| CPUID                                                              1002

 MEMORY| system memory details [Kb]
 MEMORY|                        rank 0           min           max       average
 MEMORY| MemTotal            263897616     263897556     263897616     263897594
 MEMORY| MemFree             251794444     251592420     252510052     251923266
 MEMORY| Buffers                124332        118120        125276        123114
 MEMORY| Cached                7141292       6552888       7309704       6999413
 MEMORY| Slab                  1484436       1374332       1853940       1505408
 MEMORY| SReclaimable           331560        249992        691004        372815
 MEMORY| MemLikelyFree       259391628     259274828     259524832     259418608


 *** Fundamental physical constants (SI units) ***

 *** Literature: B. J. Mohr and B. N. Taylor,
 ***             CODATA recommended values of the fundamental physical
 ***             constants: 2006, Web Version 5.1
 ***             http://physics.nist.gov/constants

 Speed of light in vacuum [m/s]                             2.99792458000000E+08
 Magnetic constant or permeability of vacuum [N/A**2]       1.25663706143592E-06
 Electric constant or permittivity of vacuum [F/m]          8.85418781762039E-12
 Planck constant (h) [J*s]                                  6.62606896000000E-34
 Planck constant (h-bar) [J*s]                              1.05457162825177E-34
 Elementary charge [C]                                      1.60217648700000E-19
 Electron mass [kg]                                         9.10938215000000E-31
 Electron g factor [ ]                                     -2.00231930436220E+00
 Proton mass [kg]                                           1.67262163700000E-27
 Fine-structure constant                                    7.29735253760000E-03
 Rydberg constant [1/m]                                     1.09737315685270E+07
 Avogadro constant [1/mol]                                  6.02214179000000E+23
 Boltzmann constant [J/K]                                   1.38065040000000E-23
 Atomic mass unit [kg]                                      1.66053878200000E-27
 Bohr radius [m]                                            5.29177208590000E-11

 *** Conversion factors ***

 [u] -> [a.u.]                                              1.82288848426455E+03
 [Angstrom] -> [Bohr] = [a.u.]                              1.88972613288564E+00
 [a.u.] = [Bohr] -> [Angstrom]                              5.29177208590000E-01
 [a.u.] -> [s]                                              2.41888432650478E-17
 [a.u.] -> [fs]                                             2.41888432650478E-02
 [a.u.] -> [J]                                              4.35974393937059E-18
 [a.u.] -> [N]                                              8.23872205491840E-08
 [a.u.] -> [K]                                              3.15774647902944E+05
 [a.u.] -> [kJ/mol]                                         2.62549961709828E+03
 [a.u.] -> [kcal/mol]                                       6.27509468713739E+02
 [a.u.] -> [Pa]                                             2.94210107994716E+13
 [a.u.] -> [bar]                                            2.94210107994716E+08
 [a.u.] -> [atm]                                            2.90362800883016E+08
 [a.u.] -> [eV]                                             2.72113838565563E+01
 [a.u.] -> [Hz]                                             6.57968392072181E+15
 [a.u.] -> [1/cm] (wave numbers)                            2.19474631370540E+05
 [a.u./Bohr**2] -> [1/cm]                                   5.14048714338585E+03
 

 CELL_TOP| Volume [angstrom^3]:                                     27000.000000
 CELL_TOP| Vector a [angstrom    30.000     0.000     0.000   |a| =    30.000000
 CELL_TOP| Vector b [angstrom     0.000    30.000     0.000   |b| =    30.000000
 CELL_TOP| Vector c [angstrom     0.000     0.000    30.000   |c| =    30.000000
 CELL_TOP| Angle (b,c), alpha [degree]:                                90.000000
 CELL_TOP| Angle (a,c), beta  [degree]:                                90.000000
 CELL_TOP| Angle (a,b), gamma [degree]:                                90.000000
 CELL_TOP| Numerically orthorhombic:                                         YES
 CELL_TOP| Periodicity                                                      NONE

 GENERATE|  Preliminary Number of Bonds generated:                             0
 GENERATE|  Achieved consistency in connectivity generation.

 CELL| Volume [angstrom^3]:                                         27000.000000
 CELL| Vector a [angstrom]:      30.000     0.000     0.000   |a| =    30.000000
 CELL| Vector b [angstrom]:       0.000    30.000     0.000   |b| =    30.000000
 CELL| Vector c [angstrom]:       0.000     0.000    30.000   |c| =    30.000000
 CELL| Angle (b,c), alpha [degree]:                                    90.000000
 CELL| Angle (a,c), beta  [degree]:                                    90.000000
 CELL| Angle (a,b), gamma [degree]:                                    90.000000
 CELL| Numerically orthorhombic:                                             YES
 CELL| Periodicity                                                          NONE

 CELL_REF| Volume [angstrom^3]:                                     27000.000000
 CELL_REF| Vector a [angstrom    30.000     0.000     0.000   |a| =    30.000000
 CELL_REF| Vector b [angstrom     0.000    30.000     0.000   |b| =    30.000000
 CELL_REF| Vector c [angstrom     0.000     0.000    30.000   |c| =    30.000000
 CELL_REF| Angle (b,c), alpha [degree]:                                90.000000
 CELL_REF| Angle (a,c), beta  [degree]:                                90.000000
 CELL_REF| Angle (a,b), gamma [degree]:                                90.000000
 CELL_REF| Numerically orthorhombic:                                         YES
 CELL_REF| Periodicity                                                      NONE

 *******************************************************************************
 *******************************************************************************
 **                                                                           **
 **     #####                         ##              ##                      **
 **    ##   ##            ##          ##              ##                      **
 **   ##     ##                       ##            ######                    **
 **   ##     ##  ##   ##  ##   #####  ##  ##   ####   ##    #####    #####    **
 **   ##     ##  ##   ##  ##  ##      ## ##   ##      ##   ##   ##  ##   ##   **
 **   ##  ## ##  ##   ##  ##  ##      ####     ###    ##   ######   ######    **
 **    ##  ###   ##   ##  ##  ##      ## ##      ##   ##   ##       ##        **
 **     #######   #####   ##   #####  ##  ##  ####    ##    #####   ##        **
 **           ##                                                    ##        **
 **                                                                           **
 **                                                ... make the atoms dance   **
 **                                                                           **
 **            Copyright (C) by CP2K developers group (2000-2025)             **
 **                      J. Chem. Phys. 152, 194103 (2020)                    **
 **                                                                           **
 *******************************************************************************

 DFT| Spin restricted Kohn-Sham (RKS) calculation                            RKS
 DFT| Multiplicity                                                             1
 DFT| Number of spin states                                                    1
 DFT| Charge                                                                   0
 DFT| Self-interaction correction (SIC)                                       NO
 DFT| Cutoffs: density                                              1.000000E-10
 DFT|          gradient                                             1.000000E-10
 DFT|          tau                                                  1.000000E-10
 DFT|          cutoff_smoothing_range                               0.000000E+00
 DFT| XC density smoothing                                                  NONE
 DFT| XC derivatives                                                          PW

 FUNCTIONAL| PBE:
 FUNCTIONAL| J.P.Perdew, K.Burke, M.Ernzerhof, Phys. Rev. Letter, vol. 77, n 18,
 FUNCTIONAL|  pp. 3865-3868, (1996)sx=0.750sc=1.000{spin unpolarized}           


 QS| Method:                                                                GAPW
 QS| Density plane wave grid type                        NON-SPHERICAL FULLSPACE
 QS| Number of grid levels:                                                    4
 QS| Density cutoff [a.u.]:                                                250.0
 QS| Multi grid cutoff [a.u.]: 1) grid level                               250.0
 QS|                           2) grid level                                83.3
 QS|                           3) grid level                                27.8
 QS|                           4) grid level                                 9.3
 QS| Grid level progression factor:                                          3.0
 QS| Relative density cutoff [a.u.]:                                        50.0
 QS| Interaction thresholds: eps_pgf_orb:                                1.0E-12
 QS|                         eps_filter_matrix:                          0.0E+00
 QS|                         eps_core_charge:                            1.0E-14
 QS|                         eps_rho_gspace:                             1.0E-12
 QS|                         eps_rho_rspace:                             1.0E-12
 QS|                         eps_gvg_rspace:                             1.0E-06
 QS|                         eps_ppl:                                    1.0E-02
 QS|                         eps_ppnl:                                   1.0E-08
 QS| GAPW|      One center basis from orbital basis primitives
 QS| GAPW|                   eps_fit:                                    1.0E-04
 QS| GAPW|                   eps_iso:                                    1.0E-12
 QS| GAPW|                   eps_svd:                                    1.0E-08
 QS| GAPW|                   eps_cpc:                                    1.0E-12
 QS| GAPW|   atom-r-grid: quadrature:                                     GC_LOG
 QS| GAPW|      atom-s-grid:  max l :                                          2
 QS| GAPW|      max_l_rho0 :                                                   2


 ATOMIC KIND INFORMATION

  1. Atomic kind: C                                     Number of atoms:       7

     Orbital Basis Set                                    aug-SZV-MOLOPT-ae-mini

       Number of orbital shell sets:                                           2
       Number of orbital shells:                                               5
       Number of primitive Cartesian functions:                                7
       Number of Cartesian basis functions:                                    9
       Number of spherical basis functions:                                    9
       Norm type:                                                              2

       Normalised Cartesian orbitals:

                        Set   Shell   Orbital            Exponent    Coefficient

                          1       1    2s                0.114558       0.000000
                                                         0.222289       0.161536
                                                         0.683483       0.214036
                                                         2.941249      -0.160017

                          1       2    3s                0.114558       0.000272
                                                         0.222289       0.256636
                                                         0.683483      -0.079244
                                                         2.941249       0.000032

                          1       3    3px               0.114558       0.000000
                                                         0.222289       0.085276
                                                         0.683483       0.538304
                                                         2.941249       0.856044
                          1       3    3py               0.114558       0.000000
                                                         0.222289       0.085276
                                                         0.683483       0.538304
                                                         2.941249       0.856044
                          1       3    3pz               0.114558       0.000000
                                                         0.222289       0.085276
                                                         0.683483       0.538304
                                                         2.941249       0.856044

                          1       4    4px               0.114558      -0.035043
                                                         0.222289      -0.159067
                                                         0.683483       0.106927
                                                         2.941249      -0.036832
                          1       4    4py               0.114558      -0.035043
                                                         0.222289      -0.159067
                                                         0.683483       0.106927
                                                         2.941249      -0.036832
                          1       4    4pz               0.114558      -0.035043
                                                         0.222289      -0.159067
                                                         0.683483       0.106927
                                                         2.941249      -0.036832

                          2       1    1s               71.616837       2.707801
                                                        13.045096       2.618883
                                                         3.530512       0.816191

     RI Auxiliary Basis Set             RI_aug-SZV-MOLOPT-ae-mini_N_RI_055_s_p_d

       Number of orbital shell sets:                                          19
       Number of orbital shells:                                              19
       Number of primitive Cartesian functions:                               19
       Number of Cartesian basis functions:                                   61
       Number of spherical basis functions:                                   55
       Norm type:                                                              2

       Normalised Cartesian orbitals:

                        Set   Shell   Orbital            Exponent    Coefficient

                          1       1    1s                0.286395       0.279019

                          2       1    8px               0.286395       0.298639
                          2       1    8py               0.286395       0.298639
                          2       1    8pz               0.286395       0.298639

                          3       1   14dx2              0.286395       0.184544
                          3       1   14dxy              0.286395       0.319639
                          3       1   14dxz              0.286395       0.319639
                          3       1   14dy2              0.286395       0.184544
                          3       1   14dyz              0.286395       0.319639
                          3       1   14dz2              0.286395       0.184544

                          4       1    2s                0.459764       0.397934

                          5       1    9px               0.505415       0.607436
                          5       1    9py               0.505415       0.607436
                          5       1    9pz               0.505415       0.607436

                          6       1   15dx2              0.505415       0.498648
                          6       1   15dxy              0.505415       0.863684
                          6       1   15dxz              0.505415       0.863684
                          6       1   15dy2              0.505415       0.498648
                          6       1   15dyz              0.505415       0.863684
                          6       1   15dz2              0.505415       0.498648

                          7       1    3s                0.738081       0.567529

                          8       1   10px               0.891931       1.235533
                          8       1   10py               0.891931       1.235533
                          8       1   10pz               0.891931       1.235533

                          9       1   16dx2              0.891931       1.347378
                          9       1   16dxy              0.891931       2.333728
                          9       1   16dxz              0.891931       2.333728
                          9       1   16dy2              0.891931       1.347378
                          9       1   16dyz              0.891931       2.333728
                          9       1   16dz2              0.891931       1.347378

                         10       1    4s                1.184876       0.809403

                         11       1   11px               1.574035       2.513091
                         11       1   11py               1.574035       2.513091
                         11       1   11pz               1.574035       2.513091

                         12       1   17dx2              1.574035       3.640699
                         12       1   17dxy              1.574035       6.305876
                         12       1   17dxz              1.574035       6.305876
                         12       1   17dy2              1.574035       3.640699
                         12       1   17dyz              1.574035       6.305876
                         12       1   17dz2              1.574035       3.640699

                         13       1    5s                1.902139       1.154361

                         14       1   12px               2.777778       5.111660
                         14       1   12py               2.777778       5.111660
                         14       1   12pz               2.777778       5.111660

                         15       1   18dx2              2.777778       9.837395
                         15       1   18dxy              2.777778      17.038868
                         15       1   18dxz              2.777778      17.038868
                         15       1   18dy2              2.777778       9.837395
                         15       1   18dyz              2.777778      17.038868
                         15       1   18dz2              2.777778       9.837395

                         16       1    6s                3.053594       1.646337

                         17       1    7s                4.902082       2.347986

                         18       1   13px               4.902082      10.397185
                         18       1   13py               4.902082      10.397185
                         18       1   13pz               4.902082      10.397185

                         19       1   19dx2              4.902082      26.581250
                         19       1   19dxy              4.902082      46.040076
                         19       1   19dxz              4.902082      46.040076
                         19       1   19dy2              4.902082      26.581250
                         19       1   19dyz              4.902082      46.040076
                         19       1   19dz2              4.902082      26.581250

       Atomic covalent radius [Angstrom]:                                  0.770

       Atomic van der Waals radius [Angstrom]:                             1.700

     The atoms of this atomic kind are PAW atoms (GAPW):
       Hard Gaussian function radius:                                      1.512
       Rho0 radius:                                                        1.512
       Maximum GTO radius used for PAW projector construction:            24.566

     GAPW Soft Basis Set                             aug-SZV-MOLOPT-ae-mini_soft

       Number of orbital shell sets:                                           2
       Number of orbital shells:                                               5
       Number of primitive Cartesian functions:                                5
       Number of Cartesian basis functions:                                    9
       Number of spherical basis functions:                                    9
       Norm type:                                                              2

       Normalised Cartesian orbitals:

                        Set   Shell   Orbital            Exponent    Coefficient

                          1       1    2s                0.114558       0.000000
                                                         0.222289       0.161536
                                                         0.683483       0.214036
                                                         2.941249      -0.160017

                          1       2    3s                0.114558       0.000272
                                                         0.222289       0.256636
                                                         0.683483      -0.079244
                                                         2.941249       0.000032

                          1       3    3px               0.114558       0.000000
                                                         0.222289       0.085276
                                                         0.683483       0.538304
                                                         2.941249       0.856044
                          1       3    3py               0.114558       0.000000
                                                         0.222289       0.085276
                                                         0.683483       0.538304
                                                         2.941249       0.856044
                          1       3    3pz               0.114558       0.000000
                                                         0.222289       0.085276
                                                         0.683483       0.538304
                                                         2.941249       0.856044

                          1       4    4px               0.114558      -0.035043
                                                         0.222289      -0.159067
                                                         0.683483       0.106927
                                                         2.941249      -0.036832
                          1       4    4py               0.114558      -0.035043
                                                         0.222289      -0.159067
                                                         0.683483       0.106927
                                                         2.941249      -0.036832
                          1       4    4pz               0.114558      -0.035043
                                                         0.222289      -0.159067
                                                         0.683483       0.106927
                                                         2.941249      -0.036832

                          2       1    1s                3.530512       0.816191

     AE Potential information for                                            ALL

       Description:                                       All-electron potential
                                          Krack, Parrinello, PCCP 2, 2105 (2000)

       Gaussian exponent of the core charge distribution:               4.109048
       Electronic configuration (s p d ...):                           4   2   0

  2. Atomic kind: F                                     Number of atoms:       3

     Orbital Basis Set                                    aug-SZV-MOLOPT-ae-mini

       Number of orbital shell sets:                                           2
       Number of orbital shells:                                               5
       Number of primitive Cartesian functions:                                8
       Number of Cartesian basis functions:                                    9
       Number of spherical basis functions:                                    9
       Norm type:                                                              2

       Normalised Cartesian orbitals:

                        Set   Shell   Orbital            Exponent    Coefficient

                          1       1    1s                6.464803      -0.288857
                                                         1.502281       0.386371
                                                         0.488588       0.291599
                                                         0.250000       0.000000
                                                         0.120000       0.000000

                          1       2    2s                6.464803       0.000000
                                                         1.502281      -0.205683
                                                         0.488588       0.226370
                                                         0.250000      -0.681175
                                                         0.120000       0.370388

                          1       3    2px               6.464803       2.291000
                                                         1.502281       1.440645
                                                         0.488588       0.228222
                                                         0.250000       0.000000
                                                         0.120000       0.000000
                          1       3    2py               6.464803       2.291000
                                                         1.502281       1.440645
                                                         0.488588       0.228222
                                                         0.250000       0.000000
                                                         0.120000       0.000000
                          1       3    2pz               6.464803       2.291000
                                                         1.502281       1.440645
                                                         0.488588       0.228222
                                                         0.250000       0.000000
                                                         0.120000       0.000000

                          1       4    3px               6.464803       0.000000
                                                         1.502281      -0.282020
                                                         0.488588       0.009318
                                                         0.250000      -0.007900
                                                         0.120000       0.104145
                          1       4    3py               6.464803       0.000000
                                                         1.502281      -0.282020
                                                         0.488588       0.009318
                                                         0.250000      -0.007900
                                                         0.120000       0.104145
                          1       4    3pz               6.464803       0.000000
                                                         1.502281      -0.282020
                                                         0.488588       0.009318
                                                         0.250000      -0.007900
                                                         0.120000       0.104145

                          2       1    1s              166.679130       5.102329
                                                        30.360812       4.934748
                                                         8.216821       1.537947

     RI Auxiliary Basis Set             RI_aug-SZV-MOLOPT-ae-mini_N_RI_055_s_p_d

       Number of orbital shell sets:                                          19
       Number of orbital shells:                                              19
       Number of primitive Cartesian functions:                               19
       Number of Cartesian basis functions:                                   61
       Number of spherical basis functions:                                   55
       Norm type:                                                              2

       Normalised Cartesian orbitals:

                        Set   Shell   Orbital            Exponent    Coefficient

                          1       1    1s                0.261857       0.260890

                          2       1    8px               0.267271       0.273924
                          2       1    8py               0.267271       0.273924
                          2       1    8pz               0.267271       0.273924

                          3       1   14dx2              0.303171       0.203874
                          3       1   14dxy              0.303171       0.353120
                          3       1   14dxz              0.303171       0.353120
                          3       1   14dy2              0.303171       0.203874
                          3       1   14dyz              0.303171       0.353120
                          3       1   14dz2              0.303171       0.203874

                          4       1    2s                0.519983       0.436417

                          5       1    9px               0.597200       0.748324
                          5       1    9py               0.597200       0.748324
                          5       1    9pz               0.597200       0.748324

                          6       1   15dx2              0.613258       0.699495
                          6       1   15dxy              0.613258       1.211561
                          6       1   15dxz              0.613258       1.211561
                          6       1   15dy2              0.613258       0.699495
                          6       1   15dyz              0.613258       1.211561
                          6       1   15dz2              0.613258       0.699495

                          7       1    3s                0.965318       0.694085

                          8       1   10px               1.248304       1.880792
                          8       1   10py               1.248304       1.880792
                          8       1   10pz               1.248304       1.880792

                          9       1   16dx2              1.257419       2.457533
                          9       1   16dxy              1.257419       4.256572
                          9       1   16dxz              1.257419       4.256572
                          9       1   16dy2              1.257419       2.457533
                          9       1   16dyz              1.257419       4.256572
                          9       1   16dz2              1.257419       2.457533

                         10       1    4s                1.757509       1.087886

                         11       1   11px               2.536777       4.563447
                         11       1   11py               2.536777       4.563447
                         11       1   11pz               2.536777       4.563447

                         12       1   17dx2              2.579536       8.641862
                         12       1   17dxy              2.579536      14.968144
                         12       1   17dxz              2.579536      14.968144
                         12       1   17dy2              2.579536       8.641862
                         12       1   17dyz              2.579536      14.968144
                         12       1   17dz2              2.579536       8.641862

                         13       1    5s                3.238188       1.720428

                         14       1   12px               5.260129      11.354960
                         14       1   12py               5.260129      11.354960
                         14       1   12pz               5.260129      11.354960

                         15       1   18dx2              5.260849      30.078570
                         15       1   18dxy              5.260849      52.097612
                         15       1   18dxz              5.260849      52.097612
                         15       1   18dy2              5.260849      30.078570
                         15       1   18dyz              5.260849      52.097612
                         15       1   18dz2              5.260849      30.078570

                         16       1    6s                5.902549       2.698919

                         17       1    7s               10.731164       4.225666

                         18       1   13px              10.738709      27.709595
                         18       1   13py              10.738709      27.709595
                         18       1   13pz              10.738709      27.709595

                         19       1   19dx2             10.784048     105.627648
                         19       1   19dxy             10.784048     182.952453
                         19       1   19dxz             10.784048     182.952453
                         19       1   19dy2             10.784048     105.627648
                         19       1   19dyz             10.784048     182.952453
                         19       1   19dz2             10.784048     105.627648

       Atomic covalent radius [Angstrom]:                                  0.720

       Atomic van der Waals radius [Angstrom]:                             1.470

     The atoms of this atomic kind are PAW atoms (GAPW):
       Hard Gaussian function radius:                                      1.512
       Rho0 radius:                                                        1.512
       Maximum GTO radius used for PAW projector construction:            24.566

     GAPW Soft Basis Set                             aug-SZV-MOLOPT-ae-mini_soft

       Number of orbital shell sets:                                           2
       Number of orbital shells:                                               5
       Number of primitive Cartesian functions:                                4
       Number of Cartesian basis functions:                                    9
       Number of spherical basis functions:                                    9
       Norm type:                                                              2

       Normalised Cartesian orbitals:

                        Set   Shell   Orbital            Exponent    Coefficient

                          1       1    1s                1.502281       0.386371
                                                         0.488588       0.291599
                                                         0.250000       0.000000
                                                         0.120000       0.000000

                          1       2    2s                1.502281      -0.205683
                                                         0.488588       0.226370
                                                         0.250000      -0.681175
                                                         0.120000       0.370388

                          1       3    2px               1.502281       1.440645
                                                         0.488588       0.228222
                                                         0.250000       0.000000
                                                         0.120000       0.000000
                          1       3    2py               1.502281       1.440645
                                                         0.488588       0.228222
                                                         0.250000       0.000000
                                                         0.120000       0.000000
                          1       3    2pz               1.502281       1.440645
                                                         0.488588       0.228222
                                                         0.250000       0.000000
                                                         0.120000       0.000000

                          1       4    3px               1.502281      -0.282020
                                                         0.488588       0.009318
                                                         0.250000      -0.007900
                                                         0.120000       0.104145
                          1       4    3py               1.502281      -0.282020
                                                         0.488588       0.009318
                                                         0.250000      -0.007900
                                                         0.120000       0.104145
                          1       4    3pz               1.502281      -0.282020
                                                         0.488588       0.009318
                                                         0.250000      -0.007900
                                                         0.120000       0.104145

                          2       1    1s         

     AE Potential information for                                            ALL

       Description:                                       All-electron potential
                                          Krack, Parrinello, PCCP 2, 2105 (2000)

       Gaussian exponent of the core charge distribution:              10.470541
       Electronic configuration (s p d ...):                           4   5   0

  3. Atomic kind: N                                     Number of atoms:       2

     Orbital Basis Set                                    aug-SZV-MOLOPT-ae-mini

       Number of orbital shell sets:                                           2
       Number of orbital shells:                                               5
       Number of primitive Cartesian functions:                                7
       Number of Cartesian basis functions:                                    9
       Number of spherical basis functions:                                    9
       Norm type:                                                              2

       Normalised Cartesian orbitals:

                        Set   Shell   Orbital            Exponent    Coefficient

                          1       1    1s                0.112012       0.000000
                                                         0.285714       0.194997
                                                         0.878496       0.258372
                                                         3.780455      -0.193164

                          1       2    2s                0.112012      -0.247059
                                                         0.285714       0.355178
                                                         0.878496       0.105643
                                                         3.780455      -0.000189

                          1       3    2px               0.112012       0.000000
                                                         0.285714       0.116706
                                                         0.878496       0.736703
                                                         3.780455       1.171552
                          1       3    2py               0.112012       0.000000
                                                         0.285714       0.116706
                                                         0.878496       0.736703
                                                         3.780455       1.171552
                          1       3    2pz               0.112012       0.000000
                                                         0.285714       0.116706
                                                         0.878496       0.736703
                                                         3.780455       1.171552

                          1       4    3px               0.112012       0.096580
                                                         0.285714      -0.017996
                                                         0.878496       0.000162
                                                         3.780455       0.000013
                          1       4    3py               0.112012       0.096580
                                                         0.285714      -0.017996
                                                         0.878496       0.000162
                                                         3.780455       0.000013
                          1       4    3pz               0.112012       0.096580
                                                         0.285714      -0.017996
                                                         0.878496       0.000162
                                                         3.780455       0.000013

                          2       1    1s               99.106168       3.454863
                                                        18.052312       3.341413
                                                         4.885660       1.041372

     RI Auxiliary Basis Set             RI_aug-SZV-MOLOPT-ae-mini_N_RI_047_s_p_d

       Number of orbital shell sets:                                          17
       Number of orbital shells:                                              17
       Number of primitive Cartesian functions:                               17
       Number of Cartesian basis functions:                                   52
       Number of spherical basis functions:                                   47
       Norm type:                                                              2

       Normalised Cartesian orbitals:

                        Set   Shell   Orbital            Exponent    Coefficient

                          1       1    1s                0.280030       0.274355

                          2       1    8px               0.280030       0.290366
                          2       1    8py               0.280030       0.290366
                          2       1    8pz               0.280030       0.290366

                          3       1   13dx2              0.280030       0.177426
                          3       1   13dxy              0.280030       0.307311
                          3       1   13dxz              0.280030       0.307311
                          3       1   13dy2              0.280030       0.177426
                          3       1   13dyz              0.280030       0.307311
                          3       1   13dz2              0.280030       0.177426

                          4       1    2s                0.470510       0.404890

                          5       1    9px               0.609890       0.768254
                          5       1    9py               0.609890       0.768254
                          5       1    9pz               0.609890       0.768254

                          6       1   14dx2              0.609890       0.692787
                          6       1   14dxy              0.609890       1.199942
                          6       1   14dxz              0.609890       1.199942
                          6       1   14dy2              0.609890       0.692787
                          6       1   14dyz              0.609890       1.199942
                          6       1   14dz2              0.609890       0.692787

                          7       1    3s                0.790558       0.597531

                          8       1    4s                1.328308       0.881828

                          9       1   15dx2              1.328308       2.705093
                          9       1   15dxy              1.328308       4.685358
                          9       1   15dxz              1.328308       4.685358
                          9       1   15dy2              1.328308       2.705093
                          9       1   15dyz              1.328308       4.685358
                          9       1   15dz2              1.328308       2.705093

                         10       1   10px               1.328308       2.032654
                         10       1   10py               1.328308       2.032654
                         10       1   10pz               1.328308       2.032654

                         11       1    5s                2.231842       1.301391

                         12       1   11px               2.892982       5.378018
                         12       1   11py               2.892982       5.378018
                         12       1   11pz               2.892982       5.378018

                         13       1   16dx2              2.892982      10.562447
                         13       1   16dxy              2.892982      18.294694
                         13       1   16dxz              2.892982      18.294694
                         13       1   16dy2              2.892982      10.562447
                         13       1   16dyz              2.892982      18.294694
                         13       1   16dz2              2.892982      10.562447

                         14       1    6s                3.749973       1.920575

                         15       1   17dx2              6.300758      41.242682
                         15       1   17dxy              6.300758      71.434420
                         15       1   17dxz              6.300758      71.434420
                         15       1   17dy2              6.300758      41.242682
                         15       1   17dyz              6.300758      71.434420
                         15       1   17dz2              6.300758      41.242682

                         16       1    7s                6.300758       2.834358

                         17       1   12px               6.300758      14.229221
                         17       1   12py               6.300758      14.229221
                         17       1   12pz               6.300758      14.229221

       Atomic covalent radius [Angstrom]:                                  0.750

       Atomic van der Waals radius [Angstrom]:                             1.550

     The atoms of this atomic kind are PAW atoms (GAPW):
       Hard Gaussian function radius:                                      1.512
       Rho0 radius:                                                        1.512
       Maximum GTO radius used for PAW projector construction:            24.566

     GAPW Soft Basis Set                             aug-SZV-MOLOPT-ae-mini_soft

       Number of orbital shell sets:                                           2
       Number of orbital shells:                                               5
       Number of primitive Cartesian functions:                                4
       Number of Cartesian basis functions:                                    9
       Number of spherical basis functions:                                    9
       Norm type:                                                              2

       Normalised Cartesian orbitals:

                        Set   Shell   Orbital            Exponent    Coefficient

                          1       1    1s                0.112012       0.000000
                                                         0.285714       0.194997
                                                         0.878496       0.258372
                                                         3.780455      -0.193164

                          1       2    2s                0.112012      -0.247059
                                                         0.285714       0.355178
                                                         0.878496       0.105643
                                                         3.780455      -0.000189

                          1       3    2px               0.112012       0.000000
                                                         0.285714       0.116706
                                                         0.878496       0.736703
                                                         3.780455       1.171552
                          1       3    2py               0.112012       0.000000
                                                         0.285714       0.116706
                                                         0.878496       0.736703
                                                         3.780455       1.171552
                          1       3    2pz               0.112012       0.000000
                                                         0.285714       0.116706
                                                         0.878496       0.736703
                                                         3.780455       1.171552

                          1       4    3px               0.112012       0.096580
                                                         0.285714      -0.017996
                                                         0.878496       0.000162
                                                         3.780455       0.000013
                          1       4    3py               0.112012       0.096580
                                                         0.285714      -0.017996
                                                         0.878496       0.000162
                                                         3.780455       0.000013
                          1       4    3pz               0.112012       0.096580
                                                         0.285714      -0.017996
                                                         0.878496       0.000162
                                                         3.780455       0.000013

                          2       1    1s         

     AE Potential information for                                            ALL

       Description:                                       All-electron potential
                                          Krack, Parrinello, PCCP 2, 2105 (2000)

       Gaussian exponent of the core charge distribution:               5.979100
       Electronic configuration (s p d ...):                           4   3   0

  4. Atomic kind: O                                     Number of atoms:       2

     Orbital Basis Set                                    aug-SZV-MOLOPT-ae-mini

       Number of orbital shell sets:                                           2
       Number of orbital shells:                                               5
       Number of primitive Cartesian functions:                                7
       Number of Cartesian basis functions:                                    9
       Number of spherical basis functions:                                    9
       Norm type:                                                              2

       Normalised Cartesian orbitals:

                        Set   Shell   Orbital            Exponent    Coefficient

                          1       1    1s                0.162491       0.000000
                                                         0.380388       0.241685
                                                         1.169596       0.320234
                                                         5.033151      -0.239413

                          1       2    2s                0.162491       0.289618
                                                         0.380388      -0.257800
                                                         1.169596      -0.000000
                                                         5.033151      -0.000284

                          1       3    2px               0.162491       0.000000
                                                         0.380388       0.166902
                                                         1.169596       1.053568
                                                         5.033151       1.675450
                          1       3    2py               0.162491       0.000000
                                                         0.380388       0.166902
                                                         1.169596       1.053568
                                                         5.033151       1.675450
                          1       3    2pz               0.162491       0.000000
                                                         0.380388       0.166902
                                                         1.169596       1.053568
                                                         5.033151       1.675450

                          1       4    3px               0.162491       0.166510
                                                         0.380388      -0.081234
                                                         1.169596      -0.994066
                                                         5.033151       0.014231
                          1       4    3py               0.162491       0.166510
                                                         0.380388      -0.081234
                                                         1.169596      -0.994066
                                                         5.033151       0.014231
                          1       4    3pz               0.162491       0.166510
                                                         0.380388      -0.081234
                                                         1.169596      -0.994066
                                                         5.033151       0.014231

                          2       1    1s              130.709321       4.251922
                                                        23.808866       4.112298
                                                         6.443608       1.281622

     RI Auxiliary Basis Set             RI_aug-SZV-MOLOPT-ae-mini_N_RI_047_s_p_d

       Number of orbital shell sets:                                          17
       Number of orbital shells:                                              17
       Number of primitive Cartesian functions:                               17
       Number of Cartesian basis functions:                                   52
       Number of spherical basis functions:                                   47
       Norm type:                                                              2

       Normalised Cartesian orbitals:

                        Set   Shell   Orbital            Exponent    Coefficient

                          1       1    1s                0.406227       0.362649

                          2       1    8px               0.406227       0.462276
                          2       1    8py               0.406227       0.462276
                          2       1    8pz               0.406227       0.462276

                          3       1   13dx2              0.406228       0.340217
                          3       1   13dxy              0.406228       0.589273
                          3       1   13dxz              0.406228       0.589273
                          3       1   13dy2              0.406228       0.340217
                          3       1   13dyz              0.406228       0.589273
                          3       1   13dz2              0.406228       0.340217

                          4       1    2s                0.672857       0.529483

                          5       1    9px               0.865963       1.190732
                          5       1    9py               0.865963       1.190732
                          5       1    9pz               0.865963       1.190732

                          6       1   14dx2              0.865963       1.279479
                          6       1   14dxy              0.865963       2.216122
                          6       1   14dxz              0.865963       2.216122
                          6       1   14dy2              0.865963       1.279479
                          6       1   14dyz              0.865963       2.216122
                          6       1   14dz2              0.865963       1.279479

                          7       1    3s                1.114489       0.773067

                          8       1    4s                1.845989       1.128709

                          9       1   10px               1.845989       3.067089
                          9       1   10py               1.845989       3.067089
                          9       1   10pz               1.845989       3.067089

                         10       1   15dx2              1.845989       4.811830
                         10       1   15dxy              1.845989       8.334333
                         10       1   15dxz              1.845989       8.334333
                         10       1   15dy2              1.845989       4.811830
                         10       1   15dyz              1.845989       8.334333
                         10       1   15dz2              1.845989       4.811830

                         11       1    5s                3.057611       1.647960

                         12       1   11px               3.935128       7.900211
                         12       1   11py               3.935128       7.900211
                         12       1   11pz               3.935128       7.900211

                         13       1   16dx2              3.935128      18.096203
                         13       1   16dxy              3.935128      31.343543
                         13       1   16dxz              3.935128      31.343543
                         13       1   16dy2              3.935128      18.096203
                         13       1   16dyz              3.935128      31.343543
                         13       1   16dz2              3.935128      18.096203

                         14       1    6s                5.064487       2.406089

                         15       1    7s                8.388585       3.512988

                         16       1   12px               8.388585      20.349370
                         16       1   12py               8.388585      20.349370
                         16       1   12pz               8.388585      20.349370

                         17       1   17dx2              8.388585      68.055730
                         17       1   17dxy              8.388585     117.875982
                         17       1   17dxz              8.388585     117.875982
                         17       1   17dy2              8.388585      68.055730
                         17       1   17dyz              8.388585     117.875982
                         17       1   17dz2              8.388585      68.055730

       Atomic covalent radius [Angstrom]:                                  0.730

       Atomic van der Waals radius [Angstrom]:                             1.520

     The atoms of this atomic kind are PAW atoms (GAPW):
       Hard Gaussian function radius:                                      1.512
       Rho0 radius:                                                        1.512
       Maximum GTO radius used for PAW projector construction:            24.566

     GAPW Soft Basis Set                             aug-SZV-MOLOPT-ae-mini_soft

       Number of orbital shell sets:                                           2
       Number of orbital shells:                                               5
       Number of primitive Cartesian functions:                                3
       Number of Cartesian basis functions:                                    9
       Number of spherical basis functions:                                    9
       Norm type:                                                              2

       Normalised Cartesian orbitals:

                        Set   Shell   Orbital            Exponent    Coefficient

                          1       1    1s                0.162491       0.000000
                                                         0.380388       0.241685
                                                         1.169596       0.320234

                          1       2    2s                0.162491       0.289618
                                                         0.380388      -0.257800
                                                         1.169596      -0.000000

                          1       3    2px               0.162491       0.000000
                                                         0.380388       0.166902
                                                         1.169596       1.053568
                          1       3    2py               0.162491       0.000000
                                                         0.380388       0.166902
                                                         1.169596       1.053568
                          1       3    2pz               0.162491       0.000000
                                                         0.380388       0.166902
                                                         1.169596       1.053568

                          1       4    3px               0.162491       0.166510
                                                         0.380388      -0.081234
                                                         1.169596      -0.994066
                          1       4    3py               0.162491       0.166510
                                                         0.380388      -0.081234
                                                         1.169596      -0.994066
                          1       4    3pz               0.162491       0.166510
                                                         0.380388      -0.081234
                                                         1.169596      -0.994066

                          2       1    1s         

     AE Potential information for                                            ALL

       Description:                                       All-electron potential
                                          Krack, Parrinello, PCCP 2, 2105 (2000)

       Gaussian exponent of the core charge distribution:               8.154466
       Electronic configuration (s p d ...):                           4   4   0

  5. Atomic kind: H                                     Number of atoms:       5

     Orbital Basis Set                                    aug-SZV-MOLOPT-ae-mini

       Number of orbital shell sets:                                           1
       Number of orbital shells:                                               4
       Number of primitive Cartesian functions:                                7
       Number of Cartesian basis functions:                                    6
       Number of spherical basis functions:                                    6
       Norm type:                                                              2

       Normalised Cartesian orbitals:

                        Set   Shell   Orbital            Exponent    Coefficient

                          1       1    1s                0.065428       0.000000
                                                         0.100112       0.016532
                                                         0.243077       0.102760
                                                         0.625955       0.185857
                                                         1.822143       0.188385
                                                         6.513144       0.143430
                                                        35.523221       0.095030

                          1       2    2s                0.065428       0.083549
                                                         0.100112       0.009605
                                                         0.243077       0.002524
                                                         0.625955       0.013457
                                                         1.822143       0.000000
                                                         6.513144       0.000000
                                                        35.523221       0.000000

                          1       3    3s                0.065428       0.037407
                                                         0.100112      -0.169070
                                                         0.243077      -0.018899
                                                         0.625955       0.012806
                                                         1.822143       0.000000
                                                         6.513144       0.000000
                                                        35.523221       0.000000

                          1       4    2px               0.065428       0.059908
                                                         0.100112      -0.023770
                                                         0.243077       0.000032
                                                         0.625955       0.017779
                                                         1.822143       0.000000
                                                         6.513144       0.000000
                                                        35.523221       0.000000
                          1       4    2py               0.065428       0.059908
                                                         0.100112      -0.023770
                                                         0.243077       0.000032
                                                         0.625955       0.017779
                                                         1.822143       0.000000
                                                         6.513144       0.000000
                                                        35.523221       0.000000
                          1       4    2pz               0.065428       0.059908
                                                         0.100112      -0.023770
                                                         0.243077       0.000032
                                                         0.625955       0.017779
                                                         1.822143       0.000000
                                                         6.513144       0.000000
                                                        35.523221       0.000000

     RI Auxiliary Basis Set             RI_aug-SZV-MOLOPT-ae_N_RI_035_s_p_d_f_g_

       Number of orbital shell sets:                                          15
       Number of orbital shells:                                              15
       Number of primitive Cartesian functions:                               15
       Number of Cartesian basis functions:                                   37
       Number of spherical basis functions:                                   35
       Norm type:                                                              2

       Normalised Cartesian orbitals:

                        Set   Shell   Orbital            Exponent    Coefficient

                          1       1    1s                0.236911       0.242019

                          2       1    8px               0.347892       0.380843
                          2       1    8py               0.347892       0.380843
                          2       1    8pz               0.347892       0.380843

                          3       1    2s                0.423897       0.374417

                          4       1    9px               0.493166       0.589089
                          4       1    9py               0.493166       0.589089
                          4       1    9pz               0.493166       0.589089

                          5       1   14dx2              0.625366       0.723843
                          5       1   14dxy              0.625366       1.253733
                          5       1   14dxz              0.625366       1.253733
                          5       1   14dy2              0.625366       0.723843
                          5       1   14dyz              0.625366       1.253733
                          5       1   14dz2              0.625366       0.723843

                          6       1   10px               0.699103       0.911206
                          6       1   10py               0.699103       0.911206
                          6       1   10pz               0.699103       0.911206

                          7       1    3s                0.758464       0.579244

                          8       1   11px               0.991036       1.409457
                          8       1   11py               0.991036       1.409457
                          8       1   11pz               0.991036       1.409457

                          9       1   15dx2              1.286053       2.556305
                          9       1   15dxy              1.286053       4.427650
                          9       1   15dxz              1.286053       4.427650
                          9       1   15dy2              1.286053       2.556305
                          9       1   15dyz              1.286053       4.427650
                          9       1   15dz2              1.286053       2.556305

                         10       1    4s                1.357095       0.896123

                         11       1   12px               1.404875       2.180155
                         11       1   12py               1.404875       2.180155
                         11       1   12pz               1.404875       2.180155

                         12       1   13px               1.991527       3.372273
                         12       1   13py               1.991527       3.372273
                         12       1   13pz               1.991527       3.372273

                         13       1    5s                2.428204       1.386354

                         14       1    6s                4.344704       2.144768

                         15       1    7s                7.773833       3.318077

       Atomic covalent radius [Angstrom]:                                  0.320

       Atomic van der Waals radius [Angstrom]:                             1.090

     The atoms of this atomic kind are PAW atoms (GAPW):
       Hard Gaussian function radius:                                      1.200
       Rho0 radius:                                                        1.200
       Maximum GTO radius used for PAW projector construction:            24.566

     GAPW Soft Basis Set                             aug-SZV-MOLOPT-ae-mini_soft

       Number of orbital shell sets:                                           1
       Number of orbital shells:                                               4
       Number of primitive Cartesian functions:                                6
       Number of Cartesian basis functions:                                    6
       Number of spherical basis functions:                                    6
       Norm type:                                                              2

       Normalised Cartesian orbitals:

                        Set   Shell   Orbital            Exponent    Coefficient

                          1       1    1s                0.065428       0.000000
                                                         0.100112       0.016532
                                                         0.243077       0.102760
                                                         0.625955       0.185857
                                                         1.822143       0.188385
                                                         6.513144       0.000000

                          1       2    2s                0.065428       0.083549
                                                         0.100112       0.009605
                                                         0.243077       0.002524
                                                         0.625955       0.013457
                                                         1.822143       0.000000
                                                         6.513144       0.000000

                          1       3    3s                0.065428       0.037407
                                                         0.100112      -0.169070
                                                         0.243077      -0.018899
                                                         0.625955       0.012806
                                                         1.822143       0.000000
                                                         6.513144       0.000000

                          1       4    2px               0.065428       0.059908
                                                         0.100112      -0.023770
                                                         0.243077       0.000032
                                                         0.625955       0.017779
                                                         1.822143       0.000000
                                                         6.513144       0.000000
                          1       4    2py               0.065428       0.059908
                                                         0.100112      -0.023770
                                                         0.243077       0.000032
                                                         0.625955       0.017779
                                                         1.822143       0.000000
                                                         6.513144       0.000000
                          1       4    2pz               0.065428       0.059908
                                                         0.100112      -0.023770
                                                         0.243077       0.000032
                                                         0.625955       0.017779
[...]
 Efficient solution of Poisson's equation with free boundary conditions.
 https://doi.org/10.1063/1.2335442

 M. Iannuzzi, T. Chassaing, T. Wallman, J. Hutter.
 CHIMIA 59, 499-503 (2005).
 Ground and excited state density functional calculations with the Gaussian and 
 augmented-plane-wave method.
 https://doi.org/10.2533/000942905777676164

 M. Frigo, S. G. Johnson.
 Proc. IEEE 93, 216-231 (2005).
 The design and implementation of FFTW3.
 https://doi.org/10.1109/JPROC.2004.840301

 R. L. Martin.
 J. Chem. Phys. 118, 4775-4777 (2003).
 Natural transition orbitals.
 https://doi.org/10.1063/1.1558471

 M. Krack, M. Parrinello.
 Phys. Chem. Chem. Phys. 2, 2105-2112 (2000).
 All-electron ab-initio molecular dynamics.
 https://doi.org/10.1039/b001167n

 G. Lippert, J. Hutter, M. Parrinello.
 Theor. Chem. Acc. 103, 124-140 (1999).
 The Gaussian and augmented-plane-wave density functional method for ab initio 
 molecular dynamics simulations.
 https://doi.org/10.1007/s002140050523

 J. P. Perdew, K. Burke, M. Ernzerhof.
 Phys. Rev. Lett. 77, 3865-3868 (1996).
 Generalized gradient approximation made simple.
 https://doi.org/10.1103/PhysRevLett.77.3865


 -------------------------------------------------------------------------------
 -                                                                             -
 -                                T I M I N G                                  -
 -                                                                             -
 -------------------------------------------------------------------------------
 SUBROUTINE                       CALLS  ASD         SELF TIME        TOTAL TIME
                                MAXIMUM       AVERAGE  MAXIMUM  AVERAGE  MAXIMUM
 CP2K                                 1  1.0    0.019    0.036  383.233  383.239
 qs_energies                          1  2.0    0.000    0.000  382.653  382.657
 qs_energies_properties               1  3.0    0.000    0.000  246.279  246.281
 tddfpt                               1  4.0    0.000    0.000  246.279  246.281
 tddfpt_energies                      1  5.0    0.000    0.000  246.268  246.271
 tddfpt_davidson_solver               1  6.0    0.001    0.001  245.169  245.172
 tddfpt_compute_Aop_evects            8  7.0    0.000    0.000  244.397  244.399
 fhxc_kernel                          8  8.0    0.005    0.006  233.660  233.662
 fft_wrap_pw1pw2                   4831 11.0    0.074    0.092  138.935  141.041
 fft_wrap_pw1pw2_250               3403 12.1    6.542    7.038  134.955  136.840
 scf_env_do_scf                       1  3.0    0.000    0.000  133.806  133.808
 scf_env_do_scf_inner_loop           77  4.0    0.001    0.004  133.806  133.807
 pw_poisson_solve                   237  9.4    2.676    2.924  129.386  130.238
 fft3d_ps                          4831 13.0   49.258   54.028  102.844  105.663
 tddfpt_apply_coulomb               160  9.0    0.002    0.002  100.017  100.819
 qs_ks_update_qs_env                 77  5.0    0.001    0.001   96.574   96.578
 rebuild_ks_matrix                   77  6.0    0.000    0.000   96.568   96.573
 qs_ks_build_kohn_sham_matrix        77  7.0    0.010    0.011   96.568   96.572
 ps_wavelet_solve                   237 10.4   73.878   79.750   93.836   94.336
 mp_alltoall_d54                    237 11.4   10.778   72.875   10.778   72.875
 xc_pw_derive                      1425 11.0    0.009    0.010   65.313   66.622
 qs_rho_update_rho_low              239  7.7    0.003    0.003   62.708   63.084
 calculate_rho_elec                 239  8.7    1.870    1.921   62.438   62.814
 tddfpt_apply_xc_analytic           160  9.0    0.405    0.442   57.112   57.451
 mp_alltoall_z22v                  4831 15.0   39.064   49.562   39.064   49.562
 xc_pw_divergence                   237 10.7    0.005    0.006   43.644   44.818
 density_rs2pw                      239  9.7    0.008    0.009   33.426   35.314
 xc_calc_2nd_deriv_analytical      1120 10.5    2.775    3.075   33.352   33.410
 yz_to_x                           2380 14.3    6.478    7.019   25.904   31.524
 x_to_yz                           2451 13.8    7.952    8.938   27.590   31.062
 qs_vxc_create                       77  8.0    0.001    0.001   29.782   29.783
 xc_vxc_pw_create                    77  9.0    0.812    0.855   29.781   29.782
 grid_collocate_task_list           239  9.7   26.209   27.502   26.209   27.502
 integrate_v_rspace                 237  9.0    0.006    0.007   25.262   25.303
 potential_pw2rs                    237 10.0    0.056    0.059   24.459   24.507
 prepare_gapw_den                   238  8.7    0.003    0.003   18.043   18.262
 transfer_pw2rs                    1186 10.9    0.013    0.017   17.990   18.200
 transfer_rs2pw                    1195 10.7    0.016    0.019   16.451   18.170
 put_rho0_on_grid                   238  9.7    1.901    1.990   17.610   17.829
 mp_waitany                       31438 12.7   13.977   16.292   13.977   16.292
 gspace_mixing                       76  5.0    0.595    0.611   16.131   16.132
 xc_rho_set_and_dset_create          78 10.0    0.456    0.495   14.359   15.612
 integrate_four_center              397  9.8    7.881   11.114   13.670   13.693
 mp_alltoall_d45                    238 11.4    8.728   13.641    8.728   13.641
 transfer_rs2pw_250                 478 11.7    4.782    5.112   11.286   13.045
 broyden_mixing                      76  6.0   12.237   12.470   12.520   12.561
 pw_gather_p                       2380 13.3   11.084   12.327   11.084   12.327
 transfer_pw2rs_250                 475 11.7    5.099    5.426   11.796   12.219
 pw_scatter_p                      2451 12.8   10.900   11.373   10.900   11.373
 tddfpt_apply_hfx                     8  8.0    0.002    0.002   10.559   10.559
 tddft_hfx_matrix                   320  9.0    0.003    0.004    9.815    9.825
 mp_alltoall_d11v                 14432 11.6    4.309    9.515    4.309    9.515
 pw_derive                         2136 11.8    8.912    9.381    8.912    9.381
 sum_up_and_integrate                77  8.0    0.001    0.001    8.409    8.416
 integrate_vhg0_rspace              237  9.4    0.083    0.129    7.678    7.703
 mp_sync                           2119 11.5    3.330    6.328    3.330    6.328
 pw_copy                           3240 11.0    5.472    5.806    5.472    5.806
 dbcsr_multiply_generic            1403 10.3    0.032    0.034    5.229    5.638
 mp_waitall_1                    134878 13.8    4.227    5.636    4.227    5.636
 pw_copy_to_array                  2380 13.3    4.424    5.261    4.424    5.261
 cp_dbcsr_plus_fm_fm_t              237  8.4    0.002    0.002    4.738    5.169
 mp_sum_d                          5801  7.5    2.605    5.035    2.605    5.035
 pw_poisson_set                     238 10.3    0.004    0.005    4.770    5.027
 cp2k_distribution_to_z_slices      237 10.4    2.210    2.572    4.274    4.922
 multiply_cannon                   1403 11.3    0.063    0.065    2.898    4.385
 xc_functional_eval                1500 10.7    0.001    0.003    3.134    4.382
 pbe_lda_eval                      1500 11.7    3.132    4.379    3.132    4.379
 pw_axpy                           2538 10.7    3.814    4.166    3.814    4.166
 hfx_ks_matrix                       77  8.0    0.001    0.001    3.864    3.882
 multiply_cannon_loop              1403 12.3    0.036    0.038    2.171    3.614
 fft_wrap_pw1pw2_90                 476 11.8    0.165    0.179    3.014    3.578
 rs_grid_zero                      1188 11.9    3.276    3.448    3.276    3.448
 multiply_cannon_metrocomm3       11224 13.3    0.015    0.015    1.485    3.250
 mp_sum_l                          5435 10.5    1.884    3.176    1.884    3.176
 transfer_pw2rs_30                  237 12.0    1.638    1.791    2.902    3.104
 transfer_pw2rs_90                  237 12.0    0.801    0.862    2.713    3.091
 pw_copy_from_array                2451 12.8    2.858    2.992    2.858    2.992
 pw_integral_ab_c1d_c1d_gs          237 10.4    2.572    2.616    2.836    2.988
 pw_zero                           2548 10.6    2.427    2.588    2.427    2.588
 transfer_rs2pw_90                  239 11.7    0.797    0.876    2.443    2.534
 transfer_rs2pw_30                  239 11.7    0.771    0.889    1.984    2.043
 qs_energies_init_hamiltonians        1  3.0    0.000    0.000    2.022    2.022
 build_core_hamiltonian_matrix        1  4.0    0.000    0.000    2.007    2.007
 overlap_condnum                      1  5.0    0.000    0.000    2.006    2.007
 mp_sendrecv_dv                   14818 12.7    1.760    1.887    1.760    1.887
 integrate_four_center_main         397 10.8    0.056    0.072    1.378    1.432
 mp_max_i                           710  4.9    0.650    1.426    0.650    1.426
 cp_fm_diag_elpa                    127  7.2    0.000    0.000    1.389    1.391
 integrate_four_center_bin        28352 11.8    1.322    1.379    1.322    1.379
 Vh_1c_gg_integrals                 237  9.4    0.025    0.070    0.632    1.370
 dbcsr_complete_redistribute       3388 10.4    0.078    0.103    1.258    1.298
 cp_dbcsr_sm_fm_multiply           1006  8.6    0.011    0.013    1.246    1.257
 mp_sum_dm                        13691  9.9    0.901    1.217    0.901    1.217
 copy_dbcsr_to_fm                  1105  9.3    0.008    0.008    1.147    1.194
 multiply_cannon_metrocomm1       11224 13.3    0.007    0.008    0.283    1.165
 calculate_xc_2nd_deriv_atom        160  9.0    0.100    0.305    0.277    1.146
 qs_scf_new_mos                      77  5.0    0.001    0.001    0.978    1.133
 mp_isend_dv                      46318 13.6    0.563    1.126    0.563    1.126
 cp_fm_redistribute_end             127  8.2    0.556    1.093    0.558    1.095
 cp_fm_diag_elpa_base               127  8.3    0.576    0.941    0.607    1.088
 rs_scatter_matrices                239  9.7    0.003    0.003    0.352    1.024
 scale_and_distribute               474 11.4    0.559    0.974    0.559    0.974
 prepare_dr1dr                     1120 11.5    0.869    0.938    0.869    0.938
 gaVxcgb_GC                         711  9.7    0.173    0.937    0.173    0.937
 make_m2s                          2806 11.3    0.016    0.017    0.357    0.929
 fft_wrap_pw1pw2_30                 476 11.8    0.036    0.038    0.717    0.928
 make_images                       2806 12.3    0.039    0.041    0.301    0.865
 cp_fm_power                          1  6.0    0.000    0.000    0.770    0.832
 multiply_cannon_metrocomm4        9821 13.3    0.015    0.017    0.323    0.823
 transfer_rs2pw_10                  239 11.7    0.176    0.191    0.722    0.762
 hybrid_alltoall_any               3912 13.4    0.016    0.018    0.111    0.761
 grid_integrate_task_list           237 10.0    0.362    0.760    0.362    0.760
 rs_gather_matrices                 237 10.0    0.004    0.005    0.434    0.708
 powell_optimize                 459515 11.0    0.662    0.686    0.662    0.686
 mp_allgather_i34                  1403 12.3    0.621    0.668    0.621    0.668
 make_images_data                  2806 13.3    0.017    0.020    0.097    0.668
 mp_alltoall_i11v                 11270 11.4    0.316    0.642    0.316    0.642
 calculate_dm_sparse                 77  6.0    0.000    0.001    0.474    0.629
 transfer_pw2rs_10                  237 12.0    0.238    0.255    0.565    0.602
 pw_poisson_rebuild                 237 10.4    0.000    0.000    0.571    0.587
 ps_wavelet_create                    1 10.0    0.000    0.000    0.571    0.587
 RS_z_slice_distribution              1 11.0    0.463    0.540    0.571    0.587
 cp_dbcsr_sm_fm_multiply_core      1006  9.6    0.002    0.002    0.562    0.580
 cp_fm_redistribute_start           127  8.2    0.214    0.524    0.223    0.536
 calc_screening_functions             1 10.0    0.130    0.132    0.514    0.533
 mp_alltoall_i22                   4494 11.4    0.425    0.504    0.425    0.504
 mp_sum_dv                        20268  8.9    0.355    0.477    0.355    0.477
 init_scf_run                         1  3.0    0.000    0.000    0.476    0.476
 mp_max_d                           219  8.2    0.247    0.476    0.247    0.476
 self_consistency_check              77  5.0    0.000    0.000    0.246    0.476
 cp_sm_mix                           77  6.0    0.000    0.000    0.246    0.476
 parallel_gemm_fm                  1510  8.2    0.001    0.001    0.444    0.473
 calculate_vxc_atom                  77  8.0    0.051    0.099    0.472    0.472
 parallel_gemm_fm_cosma            1510  9.2    0.442    0.472    0.442    0.472
 scf_env_initial_rho_setup            1  4.0    0.000    0.000    0.468    0.469
 eigensolver_symm                    77  6.0    0.005    0.006    0.456    0.457
 pw_scale                           628  9.5    0.392    0.430    0.392    0.430
 copy_fm_to_dbcsr                  2281  9.5    0.006    0.006    0.370    0.413
 calc_pair_dist_radii                 1 10.0    0.120    0.121    0.398    0.403
 qs_init_subsys                       1  2.0    0.001    0.001    0.389    0.389
 qs_env_setup                         1  3.0    0.000    0.000    0.386    0.386
 qs_env_rebuild_pw_env                2  3.5    0.000    0.000    0.386    0.386
 pw_env_rebuild                       1  5.0    0.000    0.000    0.386    0.386
 calculate_rho_atom                1190  9.7    0.263    0.384    0.263    0.384
 pw_grid_setup                        4  6.0    0.000    0.000    0.375    0.376
 pw_grid_setup_internal               4  7.0    0.005    0.006    0.375    0.376
 tddfpt_construct_ground_state_       1  6.0    0.000    0.000    0.363    0.365
 dbcsr_desymmetrize_deep           1106 10.3    0.012    0.016    0.346    0.359
 pw_grid_sort                         4  8.0    0.219    0.225    0.307    0.315
 tddfpt_orthonormalize_psi1_psi       9  6.9    0.008    0.009    0.304    0.304
 arnoldi_conjugate_gradient           7  6.0    0.007    0.008    0.299    0.299
 calculate_rho_atom_coeff           239  8.7    0.053    0.061    0.267    0.268
 create_kernel_env                    1  6.0    0.000    0.000    0.224    0.254
 xc_prep_2nd_deriv                    1  7.0    0.000    0.000    0.224    0.254
 tddfpt_print_nto_analysis            1  6.0    0.001    0.002    0.254    0.254
 cp_fm_write_unformatted             24  7.0    0.223    0.230    0.223    0.230
 tddfpt_compute_ritz_vects            8  7.0    0.002    0.002    0.223    0.224
 fft_wrap_pw1pw2_10                 476 11.8    0.008    0.009    0.176    0.208
 tddfpt_compute_residual_vects        7  7.0    0.000    0.000    0.197    0.197
 tddfpt_write_restart                 1  6.0    0.006    0.186    0.189    0.192
 xc_2nd_deriv_of_r                  960 10.0    0.008    0.037    0.040    0.185
 mp_isendrecv_dv                  39308 12.3    0.082    0.185    0.082    0.185
 dbcsr_finalize                    9996 11.2    0.021    0.035    0.129    0.185
 dbcsr_sym_matrix_vector_mult      2205  7.0    0.016    0.017    0.170    0.178
 tddfpt_apply_energy_diff             8  8.0    0.000    0.002    0.178    0.178
 mp_bcast_b_src                     204  7.7    0.027    0.157    0.027    0.157
 cp_fm_geeig                         20  7.0    0.001    0.001    0.155    0.155
 create_qs_kind_set                   1  2.0    0.000    0.000    0.146    0.147
 read_qs_kind                         5  3.0    0.061    0.080    0.146    0.147
 update_ks_atom                     237  8.7    0.036    0.043    0.108    0.145
 cp_fm_uplo_to_full                 128  9.3    0.027    0.136    0.027    0.136
 cp_fm_norm                           2  6.0    0.065    0.126    0.065    0.126
 cp_fm_trace_a1b1t1_aa            13090  8.0    0.027    0.029    0.123    0.123
 make_images_sizes                 2806 13.3    0.002    0.002    0.102    0.120
 mp_cart_sub                       2212 11.3    0.116    0.119    0.116    0.119
 dbcsr_add_d                       3360  7.0    0.002    0.002    0.029    0.119
 mp_alltoall_i44                   2806 14.3    0.100    0.118    0.100    0.118
 dbcsr_add_anytype                 3360  8.0    0.004    0.016    0.027    0.117
 mp_bcast_dm                       9006  9.7    0.072    0.116    0.072    0.116
 mp_cart_create                    2295 10.4    0.107    0.113    0.109    0.115
 integrate_four_center_dist_KS      397 10.8    0.015    0.022    0.105    0.112
 dbcsr_merge_all                   8383 12.2    0.048    0.065    0.074    0.100
 tddfpt_orthogonalize_psi1_psi0       9  6.9    0.000    0.000    0.076    0.098
 sort_shells                          4  9.0    0.088    0.091    0.088    0.091
 xc_pw_smooth                        77 10.0    0.000    0.000    0.079    0.090
 parser_read_line                 27109  4.0    0.004    0.004    0.085    0.087
 dbcsr_create_new                 31450 11.0    0.061    0.063    0.081    0.084
 mp_isend_dm3                      8574 12.7    0.068    0.083    0.068    0.083
 parser_read_line_low                41  5.0    0.002    0.024    0.081    0.083
 broadcast_input_information         41  6.0    0.007    0.007    0.079    0.081
 offload_free_buffer                245 10.1    0.061    0.079    0.061    0.079
 mp_rank_compare                   4831 14.0    0.064    0.075    0.064    0.075
 dbcsr_iterator_start             49863 10.5    0.045    0.056    0.056    0.074
 cp_fm_syrk                           1  7.0    0.073    0.074    0.073    0.074
 integrate_four_center_getP         397 10.8    0.015    0.017    0.068    0.072
 dbcsr_col_vec_to_rep_row          2205  8.0    0.007    0.008    0.062    0.070
 scf_post_calculation_gpw             1  3.0    0.000    0.000    0.069    0.070
 write_available_results              1  4.0    0.000    0.000    0.069    0.069
 write_mo_free_results                1  5.0    0.009    0.010    0.069    0.069
 mixing_init                          1  5.0    0.063    0.067    0.067    0.067
 dbcsr_work_create                13698 12.1    0.030    0.042    0.047    0.064
 vxc_of_r_new                       462  9.0    0.002    0.010    0.014    0.061
 mp_bcast_i_src                     164  7.0    0.052    0.056    0.052    0.056
 copy_fm_to_dbcsr_bc               2281 10.5    0.013    0.014    0.050    0.055
 mp_bcast_dv                       2287  9.0    0.041    0.051    0.041    0.051
 dbcsr_copy                       12292  8.5    0.021    0.024    0.043    0.049
 dbcsr_data_new                  137462 12.4    0.040    0.046    0.040    0.046
 write_mo_set_to_restart             77  5.0    0.002    0.042    0.042    0.046
 dbcsr_work_destroy_all           13698 13.0    0.021    0.031    0.031    0.046
 calculate_rho0_atom               1190  9.7    0.044    0.045    0.044    0.045
 mp_irecv_dv                      45528 13.6    0.027    0.042    0.027    0.042
 multiply_cannon_multrec          11224 13.3    0.018    0.037    0.022    0.042
 write_mo_set_low                     4  6.0    0.000    0.000    0.040    0.041
 dbcsr_data_release              203771 12.3    0.034    0.041    0.034    0.041
 dbcsr_iterator_stop              49863 10.5    0.025    0.031    0.032    0.039
 -------------------------------------------------------------------------------

 The number of warnings for this run is : 1
 
 -------------------------------------------------------------------------------
  **** **** ******  **  PROGRAM ENDED AT                 2025-06-23 14:49:31.536
 ***** ** ***  *** **   PROGRAM RAN ON                     n2cn0189.ab2021.local
 **    ****   ******    PROGRAM RAN BY                                  metdyn02
 ***** **    ** ** **   PROGRAM PROCESS ID                                493515
  **** **  *******  **  PROGRAM STOPPED IN /scratch/hpc-prf-metdyn/metdyn02_Remi
                                           /10_MOL/05_MOL/aUKBqsEOTmq69kFe5R_nOg
                                           /5k_set_final_qzvp/EFAYAL/mini-SZV/TD
                                           DFT/RILIM
