 DBCSR| CPU Multiplication driver                                           BLAS (U)
 DBCSR| Multrec recursion limit                                              512 (U)
 DBCSR| Multiplication stack size                                           1000 (D)
 DBCSR| Maximum elements for images                                    UNLIMITED (U)
 DBCSR| Multiplicative factor virtual images                                   1 (U)
 DBCSR| Use multiplication densification                                       T (D)
 DBCSR| Multiplication size stacks                                             3 (U)
 DBCSR| Use memory pool for CPU allocation                                     F (U)
 DBCSR| Number of 3D layers                                               SINGLE (U)
 DBCSR| Use MPI memory allocation                                              F (U)
 DBCSR| Use RMA algorithm                                                      F (U)
 DBCSR| Use Communication thread                                               T (U)
 DBCSR| Communication thread load                                             75 (D)
 DBCSR| MPI: My process id                                                     0
 DBCSR| MPI: Number of processes                                             216
 DBCSR| OMP: Current number of threads                                         4
 DBCSR| OMP: Max number of threads                                             4
 DBCSR| Split modifier for TAS multiplication algorithm                  1.0E+00 (U)


  **** **** ******  **  PROGRAM STARTED AT               2025-03-30 21:27:53.412
 ***** ** ***  *** **   PROGRAM STARTED ON                          i07r07c06s02
 **    ****   ******    PROGRAM STARTED BY                               di38fab
 ***** **    ** ** **   PROGRAM PROCESS ID                                406687
  **** **  *******  **  PROGRAM STARTED IN /hppfs/scratch/04/di38fab/07_MOL_non_
                                           aug/05_MOL_non_aug/05_MOL/aUKBqsEOTmq
                                           69kFe5R_nOg/5k_set_final_qzvp/METURA0
                                           1/cc-pV5Z/GW+BSE

 CP2K| version string:                 CP2K version 2025.1 (Development Version)
 CP2K| source code revision number:                                  git:d2e611a
 CP2K| cp2kflags: omp libint fftw3 libxc parallel scalapack max_contr=4         
 CP2K| is freely available from                            https://www.cp2k.org/
 CP2K| Program compiled at                       Thu 06 Mar 2025 05:09:20 PM CET
 CP2K| Program compiled on                                               login02
 CP2K| Program compiled for                                        Supermuc-foss
 CP2K| Data directory path                  /hppfs/work/pn36zo/di38fab/cp2k/data
 CP2K| Input file name                                                    GW.inp

 GLOBAL| Force Environment number                                              1
 GLOBAL| Basis set file name            /hppfs/scratch/04/di38fab/04_TMD/BASIS_A
 GLOBAL| Potential file name            /hppfs/work/pn36zo/di38fab/cp2k/data/ALL
 GLOBAL| MM Potential file name                                     MM_POTENTIAL
 GLOBAL| Coordinate file name                                      __STD_INPUT__
 GLOBAL| Method name                                                        CP2K
 GLOBAL| Project name                                                       MoS2
 GLOBAL| Run type                                                         ENERGY
 GLOBAL| FFT library                                                       FFTW3
 GLOBAL| Diagonalization library                                       ScaLAPACK
 GLOBAL| DGEMM library                                                      BLAS
 GLOBAL| Orthonormality check for eigenvectors                          DISABLED
 GLOBAL| Matrix multiplication library                                 ScaLAPACK
 GLOBAL| All-to-all communication in single precision                          F
 GLOBAL| FFTs using library dependent lengths                                  F
 GLOBAL| Grid backend                                                       AUTO
 GLOBAL| Global print level                                               MEDIUM
 GLOBAL| MPI I/O enabled                                                       T
 GLOBAL| Total number of message passing processes                           216
 GLOBAL| Number of threads for this process                                    4
 GLOBAL| This output is from process                                           0
 GLOBAL| OpenMP stack size per thread (OMP_STACKSIZE)                    default
 GLOBAL| CPU model name             Intel(R) Xeon(R) Platinum 8174 CPU @ 3.10GHz

 MEMORY| system memory details [Kb]
 MEMORY|                        rank 0           min           max       average
 MEMORY| MemTotal             98436708      98436636      98436868      98436681
 MEMORY| MemFree              84204148      83762888      84298380      84166361
 MEMORY| Buffers                     0             0             0             0
 MEMORY| Cached                2395196       2360684       2423544       2398593
 MEMORY| Slab                  1241640       1218412       1267728       1234857
 MEMORY| SReclaimable           274208        265012        283236        274076
 MEMORY| MemLikelyFree        86873552      86447336      86981192      86839031


 *** Fundamental physical constants (SI units) ***

 *** Literature: B. J. Mohr and B. N. Taylor,
 ***             CODATA recommended values of the fundamental physical
 ***             constants: 2006, Web Version 5.1
 ***             http://physics.nist.gov/constants

 Speed of light in vacuum [m/s]                             2.99792458000000E+08
 Magnetic constant or permeability of vacuum [N/A**2]       1.25663706143592E-06
 Electric constant or permittivity of vacuum [F/m]          8.85418781762039E-12
 Planck constant (h) [J*s]                                  6.62606896000000E-34
 Planck constant (h-bar) [J*s]                              1.05457162825177E-34
 Elementary charge [C]                                      1.60217648700000E-19
 Electron mass [kg]                                         9.10938215000000E-31
 Electron g factor [ ]                                     -2.00231930436220E+00
 Proton mass [kg]                                           1.67262163700000E-27
 Fine-structure constant                                    7.29735253760000E-03
 Rydberg constant [1/m]                                     1.09737315685270E+07
 Avogadro constant [1/mol]                                  6.02214179000000E+23
 Boltzmann constant [J/K]                                   1.38065040000000E-23
 Atomic mass unit [kg]                                      1.66053878200000E-27
 Bohr radius [m]                                            5.29177208590000E-11

 *** Conversion factors ***

 [u] -> [a.u.]                                              1.82288848426455E+03
 [Angstrom] -> [Bohr] = [a.u.]                              1.88972613288564E+00
 [a.u.] = [Bohr] -> [Angstrom]                              5.29177208590000E-01
 [a.u.] -> [s]                                              2.41888432650478E-17
 [a.u.] -> [fs]                                             2.41888432650478E-02
 [a.u.] -> [J]                                              4.35974393937059E-18
 [a.u.] -> [N]                                              8.23872205491840E-08
 [a.u.] -> [K]                                              3.15774647902944E+05
 [a.u.] -> [kJ/mol]                                         2.62549961709828E+03
 [a.u.] -> [kcal/mol]                                       6.27509468713739E+02
 [a.u.] -> [Pa]                                             2.94210107994716E+13
 [a.u.] -> [bar]                                            2.94210107994716E+08
 [a.u.] -> [atm]                                            2.90362800883016E+08
 [a.u.] -> [eV]                                             2.72113838565563E+01
 [a.u.] -> [Hz]                                             6.57968392072181E+15
 [a.u.] -> [1/cm] (wave numbers)                            2.19474631370540E+05
 [a.u./Bohr**2] -> [1/cm]                                   5.14048714338585E+03
 

 CELL_TOP| Volume [angstrom^3]:                                     27000.000000
 CELL_TOP| Vector a [angstrom    30.000     0.000     0.000   |a| =    30.000000
 CELL_TOP| Vector b [angstrom     0.000    30.000     0.000   |b| =    30.000000
 CELL_TOP| Vector c [angstrom     0.000     0.000    30.000   |c| =    30.000000
 CELL_TOP| Angle (b,c), alpha [degree]:                                90.000000
 CELL_TOP| Angle (a,c), beta  [degree]:                                90.000000
 CELL_TOP| Angle (a,b), gamma [degree]:                                90.000000
 CELL_TOP| Numerically orthorhombic:                                         YES
 CELL_TOP| Periodicity                                                      NONE

 GENERATE|  Preliminary Number of Bonds generated:                             0
 GENERATE|  Achieved consistency in connectivity generation.

 CELL| Volume [angstrom^3]:                                         27000.000000
 CELL| Vector a [angstrom]:      30.000     0.000     0.000   |a| =    30.000000
 CELL| Vector b [angstrom]:       0.000    30.000     0.000   |b| =    30.000000
 CELL| Vector c [angstrom]:       0.000     0.000    30.000   |c| =    30.000000
 CELL| Angle (b,c), alpha [degree]:                                    90.000000
 CELL| Angle (a,c), beta  [degree]:                                    90.000000
 CELL| Angle (a,b), gamma [degree]:                                    90.000000
 CELL| Numerically orthorhombic:                                             YES
 CELL| Periodicity                                                          NONE

 CELL_REF| Volume [angstrom^3]:                                     27000.000000
 CELL_REF| Vector a [angstrom    30.000     0.000     0.000   |a| =    30.000000
 CELL_REF| Vector b [angstrom     0.000    30.000     0.000   |b| =    30.000000
 CELL_REF| Vector c [angstrom     0.000     0.000    30.000   |c| =    30.000000
 CELL_REF| Angle (b,c), alpha [degree]:                                90.000000
 CELL_REF| Angle (a,c), beta  [degree]:                                90.000000
 CELL_REF| Angle (a,b), gamma [degree]:                                90.000000
 CELL_REF| Numerically orthorhombic:                                         YES
 CELL_REF| Periodicity                                                      NONE

 *******************************************************************************
 *******************************************************************************
 **                                                                           **
 **     #####                         ##              ##                      **
 **    ##   ##            ##          ##              ##                      **
 **   ##     ##                       ##            ######                    **
 **   ##     ##  ##   ##  ##   #####  ##  ##   ####   ##    #####    #####    **
 **   ##     ##  ##   ##  ##  ##      ## ##   ##      ##   ##   ##  ##   ##   **
 **   ##  ## ##  ##   ##  ##  ##      ####     ###    ##   ######   ######    **
 **    ##  ###   ##   ##  ##  ##      ## ##      ##   ##   ##       ##        **
 **     #######   #####   ##   #####  ##  ##  ####    ##    #####   ##        **
 **           ##                                                    ##        **
 **                                                                           **
 **                                                ... make the atoms dance   **
 **                                                                           **
 **            Copyright (C) by CP2K developers group (2000-2025)             **
 **                      J. Chem. Phys. 152, 194103 (2020)                    **
 **                                                                           **
 *******************************************************************************

 DFT| Spin restricted Kohn-Sham (RKS) calculation                            RKS
 DFT| Multiplicity                                                             1
 DFT| Number of spin states                                                    1
 DFT| Charge                                                                   0
 DFT| Self-interaction correction (SIC)                                       NO
 DFT| Cutoffs: density                                              1.000000E-10
 DFT|          gradient                                             1.000000E-10
 DFT|          tau                                                  1.000000E-10
 DFT|          cutoff_smoothing_range                               0.000000E+00
 DFT| XC density smoothing                                                  NONE
 DFT| XC derivatives                                                          PW

 FUNCTIONAL| PBE:
 FUNCTIONAL| J.P.Perdew, K.Burke, M.Ernzerhof, Phys. Rev. Letter, vol. 77, n 18,
 FUNCTIONAL|  pp. 3865-3868, (1996)sx=0.750sc=1.000{spin unpolarized}           


 QS| Method:                                                                GAPW
 QS| Density plane wave grid type                        NON-SPHERICAL FULLSPACE
 QS| Number of grid levels:                                                    4
 QS| Density cutoff [a.u.]:                                                250.0
 QS| Multi grid cutoff [a.u.]: 1) grid level                               250.0
 QS|                           2) grid level                                83.3
 QS|                           3) grid level                                27.8
 QS|                           4) grid level                                 9.3
 QS| Grid level progression factor:                                          3.0
 QS| Relative density cutoff [a.u.]:                                        50.0
 QS| Interaction thresholds: eps_pgf_orb:                                1.0E-12
 QS|                         eps_filter_matrix:                          0.0E+00
 QS|                         eps_core_charge:                            1.0E-14
 QS|                         eps_rho_gspace:                             1.0E-12
 QS|                         eps_rho_rspace:                             1.0E-12
 QS|                         eps_gvg_rspace:                             1.0E-06
 QS|                         eps_ppl:                                    1.0E-02
 QS|                         eps_ppnl:                                   1.0E-08
 QS| GAPW|      One center basis from orbital basis primitives
 QS| GAPW|                   eps_fit:                                    1.0E-04
 QS| GAPW|                   eps_iso:                                    1.0E-12
 QS| GAPW|                   eps_svd:                                    1.0E-08
 QS| GAPW|                   eps_cpc:                                    1.0E-12
 QS| GAPW|   atom-r-grid: quadrature:                                     GC_LOG
 QS| GAPW|      atom-s-grid:  max l :                                         10
 QS| GAPW|      max_l_rho0 :                                                   2


 ATOMIC KIND INFORMATION

  1. Atomic kind: O                                     Number of atoms:       2

     Orbital Basis Set                                                   cc-pV5Z

       Number of orbital shell sets:                                           6
       Number of orbital shells:                                              21
       Number of primitive Cartesian functions:                               32
       Number of Cartesian basis functions:                                  126
       Number of spherical basis functions:                                   91
       Norm type:                                                              2

       Normalised Cartesian orbitals:

                        Set   Shell   Orbital            Exponent    Coefficient

                          1       1    1px             195.500000       0.000000
                                                        46.160000       0.000000
                                                        14.580000       0.000000
                                                         5.296000       0.000000
                                                         2.094000       3.590550
                                                         0.847100       0.000000
                                                         0.336800       0.000000
                                                         0.128500       0.000000
                          1       1    1py             195.500000       0.000000
                                                        46.160000       0.000000
                                                        14.580000       0.000000
                                                         5.296000       0.000000
                                                         2.094000       3.590550
                                                         0.847100       0.000000
                                                         0.336800       0.000000
                                                         0.128500       0.000000
                          1       1    1pz             195.500000       0.000000
                                                        46.160000       0.000000
                                                        14.580000       0.000000
                                                         5.296000       0.000000
                                                         2.094000       3.590550
                                                         0.847100       0.000000
                                                         0.336800       0.000000
                                                         0.128500       0.000000

                          1       2    2px             195.500000       0.000000
                                                        46.160000       0.000000
                                                        14.580000       0.000000
                                                         5.296000       0.000000
                                                         2.094000       0.000000
                                                         0.847100       1.158400
                                                         0.336800       0.000000
                                                         0.128500       0.000000
                          1       2    2py             195.500000       0.000000
                                                        46.160000       0.000000
                                                        14.580000       0.000000
                                                         5.296000       0.000000
                                                         2.094000       0.000000
                                                         0.847100       1.158400
                                                         0.336800       0.000000
                                                         0.128500       0.000000
                          1       2    2pz             195.500000       0.000000
                                                        46.160000       0.000000
                                                        14.580000       0.000000
                                                         5.296000       0.000000
                                                         2.094000       0.000000
                                                         0.847100       1.158400
                                                         0.336800       0.000000
                                                         0.128500       0.000000

                          1       3    3px             195.500000       0.956569
                                                        46.160000       1.267066
                                                        14.580000       1.419658
                                                         5.296000       1.321897
                                                         2.094000       0.922064
                                                         0.847100       0.433170
                                                         0.336800       0.125607
                                                         0.128500       0.014224
                          1       3    3py             195.500000       0.956569
                                                        46.160000       1.267066
                                                        14.580000       1.419658
                                                         5.296000       1.321897
                                                         2.094000       0.922064
                                                         0.847100       0.433170
                                                         0.336800       0.125607
                                                         0.128500       0.014224
                          1       3    3pz             195.500000       0.956569
                                                        46.160000       1.267066
                                                        14.580000       1.419658
                                                         5.296000       1.321897
                                                         2.094000       0.922064
                                                         0.847100       0.433170
                                                         0.336800       0.125607
                                                         0.128500       0.014224

                          1       4    4px             195.500000       0.000000
                                                        46.160000       0.000000
                                                        14.580000       0.000000
                                                         5.296000       0.000000
                                                         2.094000       0.000000
                                                         0.847100       0.000000
                                                         0.336800       0.365725
                                                         0.128500       0.000000
                          1       4    4py             195.500000       0.000000
                                                        46.160000       0.000000
                                                        14.580000       0.000000
                                                         5.296000       0.000000
                                                         2.094000       0.000000
                                                         0.847100       0.000000
                                                         0.336800       0.365725
                                                         0.128500       0.000000
                          1       4    4pz             195.500000       0.000000
                                                        46.160000       0.000000
                                                        14.580000       0.000000
                                                         5.296000       0.000000
                                                         2.094000       0.000000
                                                         0.847100       0.000000
                                                         0.336800       0.365725
                                                         0.128500       0.000000

                          1       5    5px             195.500000       0.000000
                                                        46.160000       0.000000
                                                        14.580000       0.000000
                                                         5.296000       0.000000
                                                         2.094000       0.000000
                                                         0.847100       0.000000
                                                         0.336800       0.000000
                                                         0.128500       0.109665
                          1       5    5py             195.500000       0.000000
                                                        46.160000       0.000000
                                                        14.580000       0.000000
                                                         5.296000       0.000000
                                                         2.094000       0.000000
                                                         0.847100       0.000000
                                                         0.336800       0.000000
                                                         0.128500       0.109665
                          1       5    5pz             195.500000       0.000000
                                                        46.160000       0.000000
                                                        14.580000       0.000000
                                                         5.296000       0.000000
                                                         2.094000       0.000000
                                                         0.847100       0.000000
                                                         0.336800       0.000000
                                                         0.128500       0.109665

                          2       1    1s           164200.000000       0.151152
                                                     24590.000000       0.286901
                                                      5592.000000       0.495904
                                                      1582.000000       0.808436
                                                       516.100000       1.243088
                                                       187.200000       1.770469
                                                        73.930000       2.243564
                                                        31.220000       2.369157
                                                        13.810000       1.850408
                                                         6.256000       0.786713
                                                         2.776000       0.097410
                                                         1.138000       0.000835
                                                         0.460000       0.000455
                                                         0.182900      -0.000008

                          2       2    2s           164200.000000       0.000000
                                                     24590.000000       0.000000
                                                      5592.000000       0.000000
                                                      1582.000000       0.000000
                                                       516.100000       0.000000
                                                       187.200000       0.000000
                                                        73.930000       0.000000
                                                        31.220000       0.000000
                                                        13.810000       0.000000
                                                         6.256000       0.000000
                                                         2.776000       1.532762
                                                         1.138000       0.000000
                                                         0.460000       0.000000
                                                         0.182900       0.000000

                          2       3    3s           164200.000000       0.000000
                                                     24590.000000       0.000000
                                                      5592.000000       0.000000
                                                      1582.000000       0.000000
                                                       516.100000       0.000000
                                                       187.200000       0.000000
                                                        73.930000       0.000000
                                                        31.220000       0.000000
                                                        13.810000       0.000000
                                                         6.256000       0.000000
                                                         2.776000       0.000000
                                                         1.138000       0.785266
                                                         0.460000       0.000000
                                                         0.182900       0.000000

                          2       4    4s           164200.000000      -0.034881
                                                     24590.000000      -0.064378
                                                      5592.000000      -0.112454
                                                      1582.000000      -0.184320
                                                       516.100000      -0.284611
                                                       187.200000      -0.415303
                                                        73.930000      -0.546888
                                                        31.220000      -0.641477
                                                        13.810000      -0.614563
                                                         6.256000      -0.417981
                                                         2.776000       0.015182
                                                         1.138000       0.301767
                                                         0.460000       0.213695
                                                         0.182900       0.040401

                          2       5    5s           164200.000000       0.000000
                                                     24590.000000       0.000000
                                                      5592.000000       0.000000
                                                      1582.000000       0.000000
                                                       516.100000       0.000000
                                                       187.200000       0.000000
                                                        73.930000       0.000000
                                                        31.220000       0.000000
                                                        13.810000       0.000000
                                                         6.256000       0.000000
                                                         2.776000       0.000000
                                                         1.138000       0.000000
                                                         0.460000       0.398087
                                                         0.182900       0.000000

                          2       6    6s           164200.000000       0.000000
                                                     24590.000000       0.000000
                                                      5592.000000       0.000000
                                                      1582.000000       0.000000
                                                       516.100000       0.000000
                                                       187.200000       0.000000
                                                        73.930000       0.000000
                                                        31.220000       0.000000
                                                        13.810000       0.000000
                                                         6.256000       0.000000
                                                         2.776000       0.000000
                                                         1.138000       0.000000
                                                         0.460000       0.000000
                                                         0.182900       0.199329

                          3       1    1dx2              5.879000      36.533435
                                                         2.307000       0.000000
                                                         0.905000       0.000000
                                                         0.355000       0.000000
                          3       1    1dxy              5.879000      63.277766
                                                         2.307000       0.000000
                                                         0.905000       0.000000
                                                         0.355000       0.000000
                          3       1    1dxz              5.879000      63.277766
                                                         2.307000       0.000000
                                                         0.905000       0.000000
                                                         0.355000       0.000000
                          3       1    1dy2              5.879000      36.533435
                                                         2.307000       0.000000
                                                         0.905000       0.000000
                                                         0.355000       0.000000
                          3       1    1dyz              5.879000      63.277766
                                                         2.307000       0.000000
                                                         0.905000       0.000000
                                                         0.355000       0.000000
                          3       1    1dz2              5.879000      36.533435
                                                         2.307000       0.000000
                                                         0.905000       0.000000
                                                         0.355000       0.000000

                          3       2    2dx2              5.879000       0.000000
                                                         2.307000       7.107924
                                                         0.905000       0.000000
                                                         0.355000       0.000000
                          3       2    2dxy              5.879000       0.000000
                                                         2.307000      12.311285
                                                         0.905000       0.000000
                                                         0.355000       0.000000
                          3       2    2dxz              5.879000       0.000000
                                                         2.307000      12.311285
                                                         0.905000       0.000000
                                                         0.355000       0.000000
                          3       2    2dy2              5.879000       0.000000
                                                         2.307000       7.107924
                                                         0.905000       0.000000
                                                         0.355000       0.000000
                          3       2    2dyz              5.879000       0.000000
                                                         2.307000      12.311285
                                                         0.905000       0.000000
                                                         0.355000       0.000000
                          3       2    2dz2              5.879000       0.000000
                                                         2.307000       7.107924
                                                         0.905000       0.000000
                                                         0.355000       0.000000

                          3       3    3dx2              5.879000       0.000000
                                                         2.307000       0.000000
                                                         0.905000       1.382116
                                                         0.355000       0.000000
                          3       3    3dxy              5.879000       0.000000
                                                         2.307000       0.000000
                                                         0.905000       2.393895
                                                         0.355000       0.000000
                          3       3    3dxz              5.879000       0.000000
                                                         2.307000       0.000000
                                                         0.905000       2.393895
                                                         0.355000       0.000000
                          3       3    3dy2              5.879000       0.000000
                                                         2.307000       0.000000
                                                         0.905000       1.382116
                                                         0.355000       0.000000
                          3       3    3dyz              5.879000       0.000000
                                                         2.307000       0.000000
                                                         0.905000       2.393895
                                                         0.355000       0.000000
                          3       3    3dz2              5.879000       0.000000
                                                         2.307000       0.000000
                                                         0.905000       1.382116
                                                         0.355000       0.000000

                          3       4    4dx2              5.879000       0.000000
                                                         2.307000       0.000000
                                                         0.905000       0.000000
                                                         0.355000       0.268726
                          3       4    4dxy              5.879000       0.000000
                                                         2.307000       0.000000
                                                         0.905000       0.000000
                                                         0.355000       0.465446
                          3       4    4dxz              5.879000       0.000000
                                                         2.307000       0.000000
                                                         0.905000       0.000000
                                                         0.355000       0.465446
                          3       4    4dy2              5.879000       0.000000
                                                         2.307000       0.000000
                                                         0.905000       0.000000
                                                         0.355000       0.268726
                          3       4    4dyz              5.879000       0.000000
                                                         2.307000       0.000000
                                                         0.905000       0.000000
                                                         0.355000       0.465446
                          3       4    4dz2              5.879000       0.000000
                                                         2.307000       0.000000
                                                         0.905000       0.000000
                                                         0.355000       0.268726

                          4       1    1fx3              4.016000      33.611685
                                                         1.554000       0.000000
                                                         0.601000       0.000000
                          4       1    1fx2y             4.016000      75.158012
                                                         1.554000       0.000000
                                                         0.601000       0.000000
                          4       1    1fx2z             4.016000      75.158012
                                                         1.554000       0.000000
                                                         0.601000       0.000000
                          4       1    1fxy2             4.016000      75.158012
                                                         1.554000       0.000000
                                                         0.601000       0.000000
                          4       1    1fxyz             4.016000     130.177496
                                                         1.554000       0.000000
                                                         0.601000       0.000000
                          4       1    1fxz2             4.016000      75.158012
                                                         1.554000       0.000000
                                                         0.601000       0.000000
                          4       1    1fy3              4.016000      33.611685
                                                         1.554000       0.000000
                                                         0.601000       0.000000
                          4       1    1fy2z             4.016000      75.158012
                                                         1.554000       0.000000
                                                         0.601000       0.000000
                          4       1    1fyz2             4.016000      75.158012
                                                         1.554000       0.000000
                                                         0.601000       0.000000
                          4       1    1fz3              4.016000      33.611685
                                                         1.554000       0.000000
                                                         0.601000       0.000000

                          4       2    2fx3              4.016000       0.000000
                                                         1.554000       3.969349
                                                         0.601000       0.000000
                          4       2    2fx2y             4.016000       0.000000
                                                         1.554000       8.875733
                                                         0.601000       0.000000
                          4       2    2fx2z             4.016000       0.000000
                                                         1.554000       8.875733
                                                         0.601000       0.000000
                          4       2    2fxy2             4.016000       0.000000
                                                         1.554000       8.875733
                                                         0.601000       0.000000
                          4       2    2fxyz             4.016000       0.000000
                                                         1.554000      15.373221
                                                         0.601000       0.000000
                          4       2    2fxz2             4.016000       0.000000
                                                         1.554000       8.875733
                                                         0.601000       0.000000
                          4       2    2fy3              4.016000       0.000000
                                                         1.554000       3.969349
                                                         0.601000       0.000000
                          4       2    2fy2z             4.016000       0.000000
                                                         1.554000       8.875733
                                                         0.601000       0.000000
                          4       2    2fyz2             4.016000       0.000000
                                                         1.554000       8.875733
                                                         0.601000       0.000000
                          4       2    2fz3              4.016000       0.000000
                                                         1.554000       3.969349
                                                         0.601000       0.000000

                          4       3    3fx3              4.016000       0.000000
                                                         1.554000       0.000000
                                                         0.601000       0.468190
                          4       3    3fx2y             4.016000       0.000000
                                                         1.554000       0.000000
                                                         0.601000       1.046904
                          4       3    3fx2z             4.016000       0.000000
                                                         1.554000       0.000000
                                                         0.601000       1.046904
                          4       3    3fxy2             4.016000       0.000000
                                                         1.554000       0.000000
                                                         0.601000       1.046904
                          4       3    3fxyz             4.016000       0.000000
                                                         1.554000       0.000000
                                                         0.601000       1.813292
                          4       3    3fxz2             4.016000       0.000000
                                                         1.554000       0.000000
                                                         0.601000       1.046904
                          4       3    3fy3              4.016000       0.000000
                                                         1.554000       0.000000
                                                         0.601000       0.468190
                          4       3    3fy2z             4.016000       0.000000
                                                         1.554000       0.000000
                                                         0.601000       1.046904
                          4       3    3fyz2             4.016000       0.000000
                                                         1.554000       0.000000
                                                         0.601000       1.046904
                          4       3    3fz3              4.016000       0.000000
                                                         1.554000       0.000000
                                                         0.601000       0.468190

                          5       1    1gx4              3.350000      30.924924
                                                         1.189000       0.000000
                          5       1    1gx3y             3.350000      81.819659
                                                         1.189000       0.000000
                          5       1    1gx3z             3.350000      81.819659
                                                         1.189000       0.000000
                          5       1    1gx2y2            3.350000     105.628725
                                                         1.189000       0.000000
                          5       1    1gx2yz            3.350000     182.954319
                                                         1.189000       0.000000
                          5       1    1gx2z2            3.350000     105.628725
                                                         1.189000       0.000000
                          5       1    1gxy3             3.350000      81.819659
                                                         1.189000       0.000000
                          5       1    1gxy2z            3.350000     182.954319
                                                         1.189000       0.000000
                          5       1    1gxyz2            3.350000     182.954319
                                                         1.189000       0.000000
                          5       1    1gxz3             3.350000      81.819659
                                                         1.189000       0.000000
                          5       1    1gy4              3.350000      30.924924
                                                         1.189000       0.000000
                          5       1    1gy3z             3.350000      81.819659
                                                         1.189000       0.000000
                          5       1    1gy2z2            3.350000     105.628725
                                                         1.189000       0.000000
                          5       1    1gyz3             3.350000      81.819659
                                                         1.189000       0.000000
                          5       1    1gz4              3.350000      30.924924
                                                         1.189000       0.000000

                          5       2    2gx4              3.350000       0.000000
                                                         1.189000       1.791371
                          5       2    2gx3y             3.350000       0.000000
                                                         1.189000       4.739522
                          5       2    2gx3z             3.350000       0.000000
                                                         1.189000       4.739522
                          5       2    2gx2y2            3.350000       0.000000
                                                         1.189000       6.118697
                          5       2    2gx2yz            3.350000       0.000000
                                                         1.189000      10.597893
                          5       2    2gx2z2            3.350000       0.000000
                                                         1.189000       6.118697
                          5       2    2gxy3             3.350000       0.000000
                                                         1.189000       4.739522
                          5       2    2gxy2z            3.350000       0.000000
                                                         1.189000      10.597893
                          5       2    2gxyz2            3.350000       0.000000
                                                         1.189000      10.597893
                          5       2    2gxz3             3.350000       0.000000
                                                         1.189000       4.739522
                          5       2    2gy4              3.350000       0.000000
                                                         1.189000       1.791371
                          5       2    2gy3z             3.350000       0.000000
                                                         1.189000       4.739522
                          5       2    2gy2z2            3.350000       0.000000
                                                         1.189000       6.118697
                          5       2    2gyz3             3.350000       0.000000
                                                         1.189000       4.739522
                          5       2    2gz4              3.350000       0.000000
                                                         1.189000       1.791371

                          6       1    1hx5              2.319000      11.417515
                          6       1    1hx4y             2.319000      34.252546
                          6       1    1hx4z             2.319000      34.252546
                          6       1    1hx3y2            2.319000      52.321628
                          6       1    1hx3yz            2.319000      90.623718
                          6       1    1hx3z2            2.319000      52.321628
                          6       1    1hx2y3            2.319000      52.321628
                          6       1    1hx2y2z           2.319000     116.994716
                          6       1    1hx2yz2           2.319000     116.994716
                          6       1    1hx2z3            2.319000      52.321628
                          6       1    1hxy4             2.319000      34.252546
                          6       1    1hxy3z            2.319000      90.623718
                          6       1    1hxy2z2           2.319000     116.994716
                          6       1    1hxyz3            2.319000      90.623718
                          6       1    1hxz4             2.319000      34.252546
                          6       1    1hy5              2.319000      11.417515
                          6       1    1hy4z             2.319000      34.252546
                          6       1    1hy3z2            2.319000      52.321628
                          6       1    1hy2z3            2.319000      52.321628
                          6       1    1hyz4             2.319000      34.252546
                          6       1    1hz5              2.319000      11.417515

     RI Auxiliary Basis Set                                        cc-pV5Z-RIFIT

       Number of orbital shell sets:                                          39
       Number of orbital shells:                                              39
       Number of primitive Cartesian functions:                               39
       Number of Cartesian basis functions:                                  287
       Number of spherical basis functions:                                  193
       Norm type:                                                              2

       Normalised Cartesian orbitals:

                        Set   Shell   Orbital            Exponent    Coefficient

                          1       1    1s                0.251005       0.252739

                          2       1    1dx2              0.303063       0.203747
                          2       1    1dxy              0.303063       0.352901
                          2       1    1dxz              0.303063       0.352901
                          2       1    1dy2              0.303063       0.203747
                          2       1    1dyz              0.303063       0.352901
                          2       1    1dz2              0.303063       0.203747

                          3       1    1px               0.416519       0.476962
                          3       1    1py               0.416519       0.476962
                          3       1    1pz               0.416519       0.476962

                          4       1    1s                0.474911       0.407727

                          5       1    1fx3              0.621013       0.504001
                          5       1    1fx2y             0.621013       1.126979
                          5       1    1fx2z             0.621013       1.126979
                          5       1    1fxy2             0.621013       1.126979
                          5       1    1fxyz             0.621013       1.951986
                          5       1    1fxz2             0.621013       1.126979
                          5       1    1fy3              0.621013       0.504001
                          5       1    1fy2z             0.621013       1.126979
                          5       1    1fyz2             0.621013       1.126979
                          5       1    1fz3              0.621013       0.504001

                          6       1    1px               0.696641       0.907197
                          6       1    1py               0.696641       0.907197
                          6       1    1pz               0.696641       0.907197

                          7       1    1dx2              0.719024       0.924082
                          7       1    1dxy              0.719024       1.600557
                          7       1    1dxz              0.719024       1.600557
                          7       1    1dy2              0.719024       0.924082
                          7       1    1dyz              0.719024       1.600557
                          7       1    1dz2              0.719024       0.924082

                          8       1    1gx4              1.007810       1.136912
                          8       1    1gx3y             1.007810       3.007986
                          8       1    1gx3z             1.007810       3.007986
                          8       1    1gx2y2            1.007810       3.883293
                          8       1    1gx2yz            1.007810       6.726061
                          8       1    1gx2z2            1.007810       3.883293
                          8       1    1gxy3             1.007810       3.007986
                          8       1    1gxy2z            1.007810       6.726061
                          8       1    1gxyz2            1.007810       6.726061
                          8       1    1gxz3             1.007810       3.007986
                          8       1    1gy4              1.007810       1.136912
                          8       1    1gy3z             1.007810       3.007986
                          8       1    1gy2z2            1.007810       3.883293
                          8       1    1gyz3             1.007810       3.007986
                          8       1    1gz4              1.007810       1.136912

                          9       1    1s                1.058590       0.743800

                         10       1    1fx3              1.185310       2.158124
                         10       1    1fx2y             1.185310       4.825711
                         10       1    1fx2z             1.185310       4.825711
                         10       1    1fxy2             1.185310       4.825711
                         10       1    1fxyz             1.185310       8.358377
                         10       1    1fxz2             1.185310       4.825711
                         10       1    1fy3              1.185310       2.158124
                         10       1    1fy2z             1.185310       4.825711
                         10       1    1fyz2             1.185310       4.825711
                         10       1    1fz3              1.185310       2.158124

                         11       1    1px               1.274280       1.929839
                         11       1    1py               1.274280       1.929839
                         11       1    1pz               1.274280       1.929839

                         12       1    1dx2              1.442130       3.123685
                         12       1    1dxy              1.442130       5.410380
                         12       1    1dxz              1.442130       5.410380
                         12       1    1dy2              1.442130       3.123685
                         12       1    1dyz              1.442130       5.410380
                         12       1    1dz2              1.442130       3.123685

                         13       1    1hx5              1.724010       4.356106
                         13       1    1hx4y             1.724010      13.068318
                         13       1    1hx4z             1.724010      13.068318
                         13       1    1hx3y2            1.724010      19.962186
                         13       1    1hx3yz            1.724010      34.575521
                         13       1    1hx3z2            1.724010      19.962186
                         13       1    1hx2y3            1.724010      19.962186
                         13       1    1hx2y2z           1.724010      44.636805
                         13       1    1hx2yz2           1.724010      44.636805
                         13       1    1hx2z3            1.724010      19.962186
                         13       1    1hxy4             1.724010      13.068318
                         13       1    1hxy3z            1.724010      34.575521
                         13       1    1hxy2z2           1.724010      44.636805
                         13       1    1hxyz3            1.724010      34.575521
                         13       1    1hxz4             1.724010      13.068318
                         13       1    1hy5              1.724010       4.356106
                         13       1    1hy4z             1.724010      13.068318
                         13       1    1hy3z2            1.724010      19.962186
                         13       1    1hy2z3            1.724010      19.962186
                         13       1    1hyz4             1.724010      13.068318
                         13       1    1hz5              1.724010       4.356106

                         14       1    1s                1.940030       1.171565

                         15       1    1gx4              2.038250       7.886665
                         15       1    1gx3y             2.038250      20.866155
                         15       1    1gx3z             2.038250      20.866155
                         15       1    1gx2y2            2.038250      26.938091
                         15       1    1gx2yz            2.038250      46.658142
                         15       1    1gx2z2            2.038250      26.938091
                         15       1    1gxy3             2.038250      20.866155
                         15       1    1gxy2z            2.038250      46.658142
                         15       1    1gxyz2            2.038250      46.658142
                         15       1    1gxz3             2.038250      20.866155
                         15       1    1gy4              2.038250       7.886665
                         15       1    1gy3z             2.038250      20.866155
                         15       1    1gy2z2            2.038250      26.938091
                         15       1    1gyz3             2.038250      20.866155
                         15       1    1gz4              2.038250       7.886665

                         16       1    1fx3              2.093740       7.763019
                         16       1    1fx2y             2.093740      17.358638
                         16       1    1fx2z             2.093740      17.358638
                         16       1    1fxy2             2.093740      17.358638
                         16       1    1fxyz             2.093740      30.066042
                         16       1    1fxz2             2.093740      17.358638
                         16       1    1fy3              2.093740       7.763019
                         16       1    1fy2z             2.093740      17.358638
                         16       1    1fyz2             2.093740      17.358638
                         16       1    1fz3              2.093740       7.763019

                         17       1    1dx2              2.719410       9.478512
                         17       1    1dxy              2.719410      16.417264
                         17       1    1dxz              2.719410      16.417264
                         17       1    1dy2              2.719410       9.478512
                         17       1    1dyz              2.719410      16.417264
                         17       1    1dz2              2.719410       9.478512

                         18       1    1px               2.756880       5.063635
                         18       1    1py               2.756880       5.063635
                         18       1    1pz               2.756880       5.063635

                         19       1    1hx5              3.223120      33.284552
                         19       1    1hx4y             3.223120      99.853655
                         19       1    1hx4z             3.223120      99.853655
                         19       1    1hx3y2            3.223120     152.528977
                         19       1    1hx3yz            3.223120     264.187938
                         19       1    1hx3z2            3.223120     152.528977
                         19       1    1hx2y3            3.223120     152.528977
                         19       1    1hx2y2z           3.223120     341.065161
                         19       1    1hx2yz2           3.223120     341.065161
                         19       1    1hx2z3            3.223120     152.528977
                         19       1    1hxy4             3.223120      99.853655
                         19       1    1hxy3z            3.223120     264.187938
                         19       1    1hxy2z2           3.223120     341.065161
                         19       1    1hxyz3            3.223120     264.187938
                         19       1    1hxz4             3.223120      99.853655
                         19       1    1hy5              3.223120      33.284552
                         19       1    1hy4z             3.223120      99.853655
                         19       1    1hy3z2            3.223120     152.528977
                         19       1    1hy2z3            3.223120     152.528977
                         19       1    1hyz4             3.223120      99.853655
                         19       1    1hz5              3.223120      33.284552

                         20       1    1ix6              3.261230      37.658080
                         20       1    1ix5y             3.261230     124.897723
                         20       1    1ix5z             3.261230     124.897723
                         20       1    1ix4y2            3.261230     216.329201
                         20       1    1ix4yz            3.261230     374.693168
                         20       1    1ix4z2            3.261230     216.329201
                         20       1    1ix3y3            3.261230     255.964163
                         20       1    1ix3y2z           3.261230     572.353268
                         20       1    1ix3yz2           3.261230     572.353268
                         20       1    1ix3z3            3.261230     255.964163
                         20       1    1ix2y4            3.261230     216.329201
                         20       1    1ix2y3z           3.261230     572.353268
                         20       1    1ix2y2z2          3.261230     738.904892
                         20       1    1ix2yz3           3.261230     572.353268
                         20       1    1ix2z4            3.261230     216.329201
                         20       1    1ixy5             3.261230     124.897723
                         20       1    1ixy4z            3.261230     374.693168
                         20       1    1ixy3z2           3.261230     572.353268
                         20       1    1ixy2z3           3.261230     572.353268
                         20       1    1ixyz4            3.261230     374.693168
                         20       1    1ixz5             3.261230     124.897723
                         20       1    1iy6              3.261230      37.658080
                         20       1    1iy5z             3.261230     124.897723
                         20       1    1iy4z2            3.261230     216.329201
                         20       1    1iy3z3            3.261230     255.964163
                         20       1    1iy2z4            3.261230     216.329201
                         20       1    1iyz5             3.261230     124.897723
                         20       1    1iz6              3.261230      37.658080

                         21       1    1s                3.595370       1.860878

                         22       1    1fx3              3.721040      28.310609
                         22       1    1fx2y             3.721040      63.304446
                         22       1    1fx2z             3.721040      63.304446
                         22       1    1fxy2             3.721040      63.304446
                         22       1    1fxyz             3.721040     109.646517
                         22       1    1fxz2             3.721040      63.304446
                         22       1    1fy3              3.721040      28.310609
                         22       1    1fy2z             3.721040      63.304446
                         22       1    1fyz2             3.721040      63.304446
                         22       1    1fz3              3.721040      28.310609

                         23       1    1gx4              3.883140      46.418255
                         23       1    1gx3y             3.883140     122.811159
                         23       1    1gx3z             3.883140     122.811159
                         23       1    1gx2y2            3.883140     158.548524
                         23       1    1gx2yz            3.883140     274.614099
                         23       1    1gx2z2            3.883140     158.548524
                         23       1    1gxy3             3.883140     122.811159
                         23       1    1gxy2z            3.883140     274.614099
                         23       1    1gxyz2            3.883140     274.614099
                         23       1    1gxz3             3.883140     122.811159
                         23       1    1gy4              3.883140      46.418255
                         23       1    1gy3z             3.883140     122.811159
                         23       1    1gy2z2            3.883140     158.548524
                         23       1    1gyz3             3.883140     122.811159
                         23       1    1gz4              3.883140      46.418255

                         24       1    1dx2              4.518780      23.051360
                         24       1    1dxy              4.518780      39.926127
                         24       1    1dxz              4.518780      39.926127
                         24       1    1dy2              4.518780      23.051360
                         24       1    1dyz              4.518780      39.926127
                         24       1    1dz2              4.518780      23.051360

                         25       1    1px               4.708760       9.887199
                         25       1    1py               4.708760       9.887199
                         25       1    1pz               4.708760       9.887199

                         26       1    1hx5              5.427550     181.053374
                         26       1    1hx4y             5.427550     543.160123
                         26       1    1hx4z             5.427550     543.160123
                         26       1    1hx3y2            5.427550     829.690793
                         26       1    1hx3yz            5.427550    1437.066608
                         26       1    1hx3z2            5.427550     829.690793
                         26       1    1hx2y3            5.427550     829.690793
                         26       1    1hx2y2z           5.427550    1855.245014
                         26       1    1hx2yz2           5.427550    1855.245014
                         26       1    1hx2z3            5.427550     829.690793
                         26       1    1hxy4             5.427550     543.160123
                         26       1    1hxy3z            5.427550    1437.066608
                         26       1    1hxy2z2           5.427550    1855.245014
                         26       1    1hxyz3            5.427550    1437.066608
                         26       1    1hxz4             5.427550     543.160123
                         26       1    1hy5              5.427550     181.053374
                         26       1    1hy4z             5.427550     543.160123
                         26       1    1hy3z2            5.427550     829.690793
                         26       1    1hy2z3            5.427550     829.690793
                         26       1    1hyz4             5.427550     543.160123
                         26       1    1hz5              5.427550     181.053374

                         27       1    1s                5.831540       2.674530

                         28       1    1fx3              6.442910      97.361912
                         28       1    1fx2y             6.442910     217.707854
                         28       1    1fx2z             6.442910     217.707854
                         28       1    1fxy2             6.442910     217.707854
                         28       1    1fxyz             6.442910     377.081065
                         28       1    1fxz2             6.442910     217.707854
                         28       1    1fy3              6.442910      97.361912
                         28       1    1fy2z             6.442910     217.707854
                         28       1    1fyz2             6.442910     217.707854
                         28       1    1fz3              6.442910      97.361912

                         29       1    1gx4              7.014070     235.968042
                         29       1    1gx3y             7.014070     624.312756
                         29       1    1gx3z             7.014070     624.312756
                         29       1    1gx2y2            7.014070     805.984303
                         29       1    1gx2yz            7.014070    1396.005762
                         29       1    1gx2z2            7.014070     805.984303
                         29       1    1gxy3             7.014070     624.312756
                         29       1    1gxy2z            7.014070    1396.005762
                         29       1    1gxyz2            7.014070    1396.005762
                         29       1    1gxz3             7.014070     624.312756
                         29       1    1gy4              7.014070     235.968042
                         29       1    1gy3z             7.014070     624.312756
                         29       1    1gy2z2            7.014070     805.984303
                         29       1    1gyz3             7.014070     624.312756
                         29       1    1gz4              7.014070     235.968042

                         30       1    1dx2              7.274420      53.034271
                         30       1    1dxy              7.274420      91.858053
                         30       1    1dxz              7.274420      91.858053
                         30       1    1dy2              7.274420      53.034271
                         30       1    1dyz              7.274420      91.858053
                         30       1    1dz2              7.274420      53.034271

                         31       1    1px              11.049300      28.714982
                         31       1    1py              11.049300      28.714982
                         31       1    1pz              11.049300      28.714982

                         32       1    1fx3             14.098700     567.031722
                         32       1    1fx2y            14.098700    1267.921477
                         32       1    1fx2z            14.098700    1267.921477
                         32       1    1fxy2            14.098700    1267.921477
                         32       1    1fxyz            14.098700    2196.104418
                         32       1    1fxz2            14.098700    1267.921477
                         32       1    1fy3             14.098700     567.031722
                         32       1    1fy2z            14.098700    1267.921477
                         32       1    1fyz2            14.098700    1267.921477
                         32       1    1fz3             14.098700     567.031722

                         33       1    1s               14.825500       5.384769

                         34       1    1dx2             21.988200     367.486504
                         34       1    1dxy             21.988200     636.505295
                         34       1    1dxz             21.988200     636.505295
                         34       1    1dy2             21.988200     367.486504
                         34       1    1dyz             21.988200     636.505295
                         34       1    1dz2             21.988200     367.486504

                         35       1    1px              25.465100      81.540209
                         35       1    1py              25.465100      81.540209
                         35       1    1pz              25.465100      81.540209

                         36       1    1s               28.708200       8.839233

                         37       1    1px              94.256600     418.629472
                         37       1    1py              94.256600     418.629472
                         37       1    1pz              94.256600     418.629472

                         38       1    1s              105.279000      23.424288

                         39       1    1s              488.561000      74.062640

       Atomic covalent radius [Angstrom]:                                  0.730

       Atomic van der Waals radius [Angstrom]:                             1.520

     The atoms of this atomic kind are PAW atoms (GAPW):
       Hard Gaussian function radius:                                      1.512
       Rho0 radius:                                                        1.512
       Maximum GTO radius used for PAW projector construction:            24.566

     GAPW Soft Basis Set                                            cc-pV5Z_soft

       Number of orbital shell sets:                                           6
       Number of orbital shells:                                              21
       Number of primitive Cartesian functions:                               17
       Number of Cartesian basis functions:                                  126
       Number of spherical basis functions:                                   91
       Norm type:                                                              2

       Normalised Cartesian orbitals:

                        Set   Shell   Orbital            Exponent    Coefficient

                          1       1    1px               2.094000       3.590550
                                                         0.847100       0.000000
                                                         0.336800       0.000000
                                                         0.128500       0.000000
                          1       1    1py               2.094000       3.590550
                                                         0.847100       0.000000
[...]
 https://doi.org/10.1109/JPROC.2004.840301

 M. Krack, M. Parrinello.
 Phys. Chem. Chem. Phys. 2, 2105-2112 (2000).
 All-electron ab-initio molecular dynamics.
 https://doi.org/10.1039/b001167n

 G. Lippert, J. Hutter, M. Parrinello.
 Theor. Chem. Acc. 103, 124-140 (1999).
 The Gaussian and augmented-plane-wave density functional method for ab initio 
 molecular dynamics simulations.
 https://doi.org/10.1007/s002140050523

 J. P. Perdew, K. Burke, M. Ernzerhof.
 Phys. Rev. Lett. 77, 3865-3868 (1996).
 Generalized gradient approximation made simple.
 https://doi.org/10.1103/PhysRevLett.77.3865


 -------------------------------------------------------------------------------
 -                                                                             -
 -                                T I M I N G                                  -
 -                                                                             -
 -------------------------------------------------------------------------------
 SUBROUTINE                       CALLS  ASD         SELF TIME        TOTAL TIME
                                MAXIMUM       AVERAGE  MAXIMUM  AVERAGE  MAXIMUM
 CP2K                                 1  1.0    0.031    0.062 3455.086 3455.086
 qs_energies                          1  2.0    0.001    0.001 3451.227 3451.475
 mp2_main                             1  3.0    0.000    0.001 2546.349 2546.596
 mp2_gpw_main                         1  4.0    0.000    0.001 2543.133 2543.186
 rpa_ri_compute_en                    1  5.0    0.001    0.002 2491.992 2491.997
 rpa_num_int                          1  6.0    0.002    0.002 2488.227 2488.500
 compute_GW_self_energy             100  7.0    0.010    0.022 1996.717 2005.339
 compute_GW_self_energy_deep        100  8.0 1157.810 1159.062 1993.531 2002.152
 parallel_gemm_fm                   381  8.4    0.001    0.001  943.433  952.199
 parallel_gemm_fm_gemm              381  9.4    0.001    0.001  943.432  952.198
 cp_fm_gemm                         381 10.4  943.431  952.198  943.431  952.198
 scf_env_do_scf                       1  3.0    0.000    0.000  900.290  900.302
 scf_env_do_scf_inner_loop           80  4.0    0.002    0.006  900.290  900.302
 qs_ks_build_kohn_sham_matrix        81  7.0    0.012    0.014  850.048  850.245
 qs_ks_update_qs_env                 80  5.0    0.001    0.001  847.463  847.658
 rebuild_ks_matrix                   80  6.0    0.000    0.000  847.448  847.643
 hfx_ks_matrix                       81  8.0    0.003    0.004  723.831  724.140
 integrate_four_center               81  9.0    3.644    5.245  723.824  724.129
 integrate_four_center_main          81 10.0    3.438   10.157  487.219  528.165
 integrate_four_center_bin        22502 11.0  483.781  526.828  483.781  526.828
 start_bse_calculation                1  7.0    0.001    0.002  469.305  469.309
 cp_fm_syevd                         86  7.0    0.001    0.001  371.640  372.175
 cp_fm_redistribute_end              86  8.0  185.713  371.640  186.077  371.707
 cp_fm_syevd_base                    86  8.0  184.982  370.161  184.982  370.161
 create_hermitian_form_of_ABBA        1  8.0    0.001    0.001  239.600  239.684
 diagonalize_C                        1  8.0    0.001    0.003  211.788  211.808
 cp_fm_power                          2  7.5    0.604    0.636  190.408  190.695
 calc_screening_functions             1 10.0  145.942  152.259  152.856  159.189
 mp_sync                            851  9.5   70.619  137.674   70.619  137.674
 mp2_ri_gpw_compute_in                1  5.0    0.048    0.069   51.011   51.024
 mp2_ri_gpw_compute_in_loop           1  6.0    0.000    0.001   50.829   50.847
 contract_B_L                         4  7.0    0.161    0.185   36.747   46.581
 mp2_eri_3c_integrate                 1  7.0    0.047    0.061   11.199   36.066
 integrate_set_3c                 25935  8.0   10.282   33.776   11.152   36.009
 sum_up_and_integrate                81  8.0    0.001    0.001   34.869   35.563
 integrate_v_rspace                  81  9.0    0.002    0.002   34.840   35.536
 mp_cart_create                     605  9.9   25.333   35.167   25.334   35.168
 dbt_pgrid_create_expert             84 10.8    0.000    0.000   25.297   35.139
 mp_alltoall_d11v                  1632  9.5   29.103   30.797   29.103   30.797
 qs_rho_update_rho_low               81  5.0    0.001    0.001   30.107   30.109
 rs_gather_matrices                  81 10.0    0.010    0.034   26.806   27.553
 calculate_rho_elec                  81  6.0    0.176    0.189   27.444   27.447
 grid_integrate_task_list            81 10.0    0.723   27.255    0.723   27.255
 prepare_gapw_den                    81  8.0    0.003    0.003   26.547   26.611
 fft_wrap_pw1pw2                   1692  9.9    0.027    0.036   25.695   26.459
 fft_wrap_pw1pw2_250               1206 11.1    0.829    0.924   24.329   25.122
 mp_sum_d                         16619  6.9   20.826   23.578   20.826   23.578
 density_rs2pw                       81  7.0    0.004    0.005   21.992   23.372
 pw_poisson_solve                    81  8.0    0.474    0.510   23.353   23.370
 fft3d_ps                          1692 11.9    7.952    8.797   22.168   22.911
 transfer_rs2pw                     406  8.4    0.007    0.012   19.789   21.173
 calculate_rho_atom                 324  9.0    3.524   21.024    3.524   21.025
 mp_sum_dv                        41293  9.8   18.905   19.774   18.905   19.774
 mp_waitany                       20496 11.5   17.634   19.230   17.634   19.230
 grid_collocate_task_list            81  7.0    4.858   19.011    4.858   19.011
 transfer_rs2pw_250                 163 10.0    1.350    1.499   13.563   18.075
 calculate_vxc_atom                  81  8.0    0.080    1.591   17.941   17.942
 ps_wavelet_solve                    81  9.0    8.012   11.667   16.963   17.031
 qs_scf_new_mos                      80  5.0    0.001    0.001   16.769   16.836
 gaVxcgb_GC                         240  9.0    0.352   16.167    0.352   16.167
 mp_alltoall_z22v                  1692 13.9   12.311   15.789   12.311   15.789
 eigensolver_symm                    81  6.0    0.004    0.005   15.009   15.024
 qs_vxc_create                       81  8.0    0.001    0.001   14.337   14.339
 xc_vxc_pw_create                    80  9.0    0.224    0.255   14.336   14.337
 rpa_num_int_RPA_matrix_operati     100  7.0    0.001    0.003   13.070   13.071
 powell_optimize                4874527 11.0   12.162   12.488   12.162   12.488
 xc_pw_derive                       480 11.0    0.004    0.005   10.953   11.707
 calc_mat_Q                         100  8.0    0.000    0.001   11.379   11.470
 contract_S_to_Q                    100  9.0    0.001    0.001   11.337   11.430
 mp_alltoall_d54                     81 10.0    4.441   10.979    4.441   10.979
 dbt_total                            8  8.0    0.000    0.000   10.933   10.933
 cp_fm_syrk                           2  8.5   10.574   10.799   10.574   10.799
 dbt_contract                         4  9.0    0.001    0.001   10.063   10.126
 mp_sum_l                          1155  6.6    6.431    9.828    6.431    9.828
 integrate_four_center_load          81 10.0    0.000    0.001    6.354    9.759
 hfx_load_balance                     1 11.0    0.000    0.000    6.353    9.759
 hfx_load_balance_range               1 12.0    0.000    0.000    6.325    9.731
 yz_to_x                            645 13.2    0.560    0.701    6.932    9.253
 create_B                             1  8.0    0.000    0.005    9.142    9.211
 transfer_rs2pw_90                   81  9.0    0.238    0.312    3.949    9.175
 dbt_tas_multiply                     8 11.5    0.000    0.000    8.733    8.733
 dbt_tas_total                        8 12.5    0.005    0.016    8.733    8.733
 calc_pair_dist_radii                 1 10.0    2.654    2.697    7.903    8.052
 xc_pw_divergence                    80 10.0    0.002    0.002    7.356    8.046
 potential_pw2rs                     81 10.0    0.017    0.022    7.308    8.023
 dbt_tas_dbm                          8 13.5    0.000    0.000    7.950    7.950
 dbm_multiply                         8 15.5    7.220    7.726    7.220    7.726
 dbt_tas_mm_1N                        6 14.5    0.000    0.000    7.206    7.712
 create_A                             1  8.0    0.007    0.013    7.542    7.597
 mp_waitall_1                     85738 12.0    6.216    7.573    6.216    7.573
 x_to_yz                            723 12.9    0.848    0.951    6.731    7.150
 xc_rho_set_and_dset_create          80 10.0    0.179    0.233    6.586    6.944
 transfer_pw2rs                     406 10.6    0.006    0.008    6.558    6.689
 gspace_mixing                       79  5.0    0.172    0.184    6.273    6.274
 integrate_vhg0_rspace               81  8.0    0.857    0.923    5.512    5.598
 mp_alltoall_d45                     82 10.0    4.536    5.349    4.536    5.349
 mp_sum_dm                         3730  7.6    5.118    5.243    5.118    5.243
 broyden_mixing                      79  6.0    4.325    4.453    4.470    4.537
 create_integ_mat                     4  6.0    0.015    0.024    3.724    4.142
 array2fm                             4  7.0    0.000    0.000    3.350    4.059
 put_rho0_on_grid                    81  9.0    0.190    0.241    3.872    3.937
 qs_energies_init_hamiltonians        1  3.0    0.000    0.000    3.877    3.877
 build_core_hamiltonian_matrix        1  4.0    0.000    0.000    3.862    3.862
 overlap_condnum                      1  5.0    0.000    0.001    3.822    3.859
 transfer_pw2rs_250                 163 11.0    1.148    1.266    3.486    3.634
 arnoldi_conjugate_gradient           5  6.0    0.068    0.084    3.516    3.516
 cp_fm_cholesky_invert              101  8.0    3.115    3.174    3.115    3.174
 integrate_four_center_getP          81 10.0    0.139    0.146    2.971    2.996
 mp_isendrecv_dv                  69660 12.0    1.129    2.961    1.129    2.961
 integrate_four_center_dist_KS       81 10.0    0.099    0.108    2.922    2.929
 fm_general_add_bse                   5 10.2    0.000    0.000    2.654    2.757
 create_qs_kind_set                   1  2.0    0.000    0.000    2.686    2.686
 read_qs_kind                         4  3.0    1.480    1.515    2.686    2.686
 calculate_rho_atom_coeff            81  6.0    0.124    0.246    2.662    2.662
 compute_vec_Sigma_x_minus_vxc_       1  4.0    0.000    0.000    2.637    2.637
 dbcsr_sym_matrix_vector_mult     10015  7.0    0.159    0.175    1.993    2.394
 dbcsr_multiply_generic             173  8.1    0.011    0.013    2.155    2.356
 abc_contract                     25935  9.0    0.870    2.234    0.870    2.234
 dbt_copy                            12 10.1    0.001    0.001    2.009    2.128
 copy_dbcsr_to_fm                   135  6.8    0.003    0.003    1.850    2.001
 cp_fm_cholesky_decompose           102  9.0    1.721    1.902    1.721    1.902
 transfer_pw2rs_30                   81 12.0    0.741    0.803    1.665    1.785
 transfer_rs2pw_30                   81  9.0    0.764    0.800    1.735    1.767
 dbt_tas_estimate_result_nze          4 12.0    0.038    0.047    1.714    1.714
 calculate_rho0_atom                324  9.0    1.453    1.626    1.453    1.626
 array2fm_fill                        4  8.0    0.492    0.600    0.938    1.593
 array2fm_info                        4  8.0    1.415    1.561    1.434    1.587
 Vh_1c_gg_integrals                  81  8.0    0.042    1.321    1.351    1.535
 hybrid_alltoall_any                483 11.1    0.517    0.578    1.426    1.496
 compute_Erpa_by_freq_int           100  8.0    0.003    0.003    1.489    1.490
 multiply_cannon                    173  9.1    0.021    0.022    1.270    1.477
 mp_bcast_dv                      10101  9.0    0.577    1.428    0.577    1.428
 multiply_cannon_loop               173 10.1    0.021    0.024    1.214    1.424
 xc_functional_eval                 560 10.9    0.001    0.003    1.070    1.371
 pbe_lda_eval                       560 11.9    1.069    1.370    1.069    1.370
 dbt_reshape                          8 11.6    0.307    0.351    1.263    1.366
 mp_sendrecv_dv                   34830 10.0    1.309    1.357    1.309    1.357
 cp_fm_uplo_to_full                 103  8.0    1.012    1.346    1.012    1.346
 pw_scatter_p                       885 12.1    1.156    1.306    1.156    1.306
 dbcsr_desymmetrize_deep            137  7.7    0.054    0.062    1.229    1.273
 parser_read_line                314233  4.0    0.106    0.114    1.206    1.232
 dbcsr_rep_row_to_rep_col_vec     10015  8.0    0.055    0.078    0.474    1.222
 multiply_cannon_multrec           3148 11.1    0.999    1.166    1.006    1.174
 rs_grid_zero                       407 11.2    1.100    1.152    1.100    1.152
 parser_read_line_low               338  5.0    0.095    0.469    1.100    1.125
 cp_fm_to_fm_submat_general         112 10.1    0.611    1.117    0.611    1.117
 cp2k_distribution_to_z_slices       81  9.0    0.373    0.419    0.912    1.104
 dbcsr_complete_redistribute        299  8.5    0.212    0.279    0.967    1.083
 mp_wait                            119  9.0    0.446    1.073    0.446    1.073
 broadcast_input_information        338  6.0    0.231    0.253    1.005    1.070
 mp_waitall_2                        48 15.8    0.912    1.048    0.912    1.048
 pw_gather_p                        807 11.8    0.895    1.041    0.895    1.041
 mult_B_with_W                        1  8.0    0.000    0.000    0.856    1.038
 transfer_pw2rs_90                   81 12.0    0.217    0.253    0.894    1.008
 array2fm_buffer_send                 4  8.0    0.822    0.987    0.822    0.987
 fft_wrap_pw1pw2_90                 162 10.5    0.024    0.039    0.848    0.951
 ao_to_mo_and_store_B_mult_gw_1      11  7.0    0.000    0.000    0.761    0.937
 dbt_communicate_buffer               8 12.6    0.003    0.003    0.844    0.922
 cp_fm_redistribute_start            86  8.0    0.378    0.636    0.580    0.915
 dbcsr_add_d                      15088  7.0    0.014    0.016    0.130    0.899
 dbcsr_add_anytype                15088  8.0    0.017    0.122    0.116    0.884
 make_m2s                           346  9.1    0.007    0.008    0.795    0.876
 pw_derive                          723 11.3    0.790    0.852    0.790    0.852
 make_images                        346 10.1    0.098    0.119    0.741    0.821
 qs_init_subsys                       1  2.0    0.009    0.009    0.811    0.811
 ao_to_mo_and_store_B_mult_bse_      11  7.0    0.000    0.000    0.737    0.794
 calculate_dm_sparse                 80  6.0    0.001    0.001    0.725    0.793
 cp_dbcsr_plus_fm_fm_t               80  7.0    0.001    0.002    0.723    0.791
 mp_sum_iv                          387  9.6    0.436    0.772    0.436    0.772
 allocate_matrices_gw                 1  7.0    0.002    0.003    0.473    0.744
 fm_general_add_bse_4_buf_from_       1 10.0    0.650    0.739    0.650    0.739
 dbcsr_col_vec_to_rep_row         10015  8.0    0.073    0.100    0.538    0.737
 dbt_remap                            8 10.0    0.002    0.002    0.719    0.719
 dbt_split_blocks_generic            20  8.8    0.338    0.359    0.669    0.706
 get_vec_sigma_x                      1  8.0    0.001    0.001    0.431    0.701
 dbcsr_finalize                   16943 10.4    0.018    0.182    0.202    0.688
 qs_env_setup                         1  3.0    0.000    0.000    0.654    0.687
 qs_env_rebuild_pw_env                2  3.5    0.000    0.000    0.653    0.686
 pw_env_rebuild                       1  5.0    0.001    0.001    0.652    0.685
 pw_copy                           1210 10.6    0.614    0.667    0.614    0.667
 update_ks_atom                      81  8.0    0.090    0.290    0.506    0.662
 init_scf_run                         1  3.0    0.000    0.000    0.644    0.644
 mp_irecv_dm3                      2928 11.5    0.196    0.638    0.196    0.638
 pw_poisson_rebuild                  81  9.0    0.000    0.000    0.606    0.629
 ps_wavelet_create                    1 10.0    0.000    0.000    0.606    0.629
 RS_z_slice_distribution              1 11.0    0.500    0.589    0.606    0.629
 fm_general_add_bse_1_setup           5 11.2    0.549    0.626    0.549    0.626
 truncate_BSE_matrices                1  8.0    0.000    0.001    0.368    0.621
 ao_to_mo_and_store_B_E_Ex_gw_1      11  7.0    0.265    0.311    0.577    0.619
 fm_general_add_bse_5_comm_buff       5 11.2    0.000    0.000    0.361    0.603
 communicate_buffer                   5 12.2    0.001    0.001    0.361    0.603
 make_images_data                   346 11.1    0.005    0.006    0.539    0.601
 fm_general_add_bse_4_buf_from_       1 10.0    0.542    0.600    0.542    0.600
 dbcsr_sym_matrix_vector_mult_l   10015  8.0    0.101    0.534    0.131    0.564
 ao_to_mo_and_store_B_E_Ex_bse_      11  7.0    0.236    0.278    0.519    0.560
 transfer_rs2pw_10                   81  9.0    0.195    0.211    0.534    0.545
 mp_bcast_i_src                    1352  7.0    0.305    0.539    0.305    0.539
 mp_bcast_am_src                    338  7.0    0.416    0.507    0.454    0.536
 transfer_pw2rs_10                   81 12.0    0.192    0.232    0.507    0.528
 cp_fm_symm                          81  7.0    0.495    0.513    0.495    0.513
 pw_poisson_set                      82  8.9    0.002    0.003    0.483    0.500
 dbt_split_copyback                   4 10.0    0.358    0.395    0.449    0.489
 dbt_tas_replicate                    8 13.5    0.211    0.255    0.473    0.488
 mp_bcast_dm                       2430  9.0    0.416    0.481    0.416    0.481
 compute_max_radius                   1  6.0    0.207    0.473    0.207    0.473
 scf_env_initial_rho_setup            1  4.0    0.000    0.000    0.468    0.469
 mp_isend_dv                      27613 12.1    0.278    0.458    0.278    0.458
 dbm_reserve_blocks                  67 14.0    0.409    0.450    0.409    0.450
 mp_max_i                           629  3.0    0.226    0.424    0.226    0.424
 array2fm_waitall                     4  8.0    0.001    0.007    0.025    0.416
 pw_integral_ab_c1d_c1d_gs           81  9.0    0.263    0.267    0.381    0.414
 dbcsr_merge_all                  15966 11.0    0.025    0.208    0.173    0.410
 dbt_tas_reserve_blocks_index        59 13.0    0.007    0.007    0.367    0.405
 pw_copy_to_array                   807 11.8    0.323    0.382    0.323    0.382
 mp2_main_alloc_hfx                   1  4.0    0.132    0.378    0.132    0.378
 cp_fm_create                       409  7.8    0.327    0.376    0.327    0.376
 copy_fm_to_dbcsr                   164  8.1    0.001    0.001    0.344    0.373
 mp_sum_i                            21  9.7    0.249    0.372    0.249    0.372
 restraint_control                    1  2.0    0.000    0.000    0.248    0.371
 mp_isend_dm3                      2928 11.5    0.185    0.362    0.185    0.362
 dbt_reserve_blocks_index            36 10.8    0.008    0.009    0.327    0.362
 pw_copy_from_array                 885 12.1    0.266    0.346    0.266    0.346
 -------------------------------------------------------------------------------

 The number of warnings for this run is : 2
 
 -------------------------------------------------------------------------------
  **** **** ******  **  PROGRAM ENDED AT                 2025-03-30 22:25:29.093
 ***** ** ***  *** **   PROGRAM RAN ON                              i07r07c06s02
 **    ****   ******    PROGRAM RAN BY                                   di38fab
 ***** **    ** ** **   PROGRAM PROCESS ID                                406687
  **** **  *******  **  PROGRAM STOPPED IN /hppfs/scratch/04/di38fab/07_MOL_non_
                                           aug/05_MOL_non_aug/05_MOL/aUKBqsEOTmq
                                           69kFe5R_nOg/5k_set_final_qzvp/METURA0
                                           1/cc-pV5Z/GW+BSE
