 DBCSR| CPU Multiplication driver                                           BLAS (U)
 DBCSR| Multrec recursion limit                                              512 (U)
 DBCSR| Multiplication stack size                                           1000 (D)
 DBCSR| Maximum elements for images                                    UNLIMITED (U)
 DBCSR| Multiplicative factor virtual images                                   1 (U)
 DBCSR| Use multiplication densification                                       T (D)
 DBCSR| Multiplication size stacks                                             3 (U)
 DBCSR| Use memory pool for CPU allocation                                     F (U)
 DBCSR| Number of 3D layers                                               SINGLE (U)
 DBCSR| Use MPI memory allocation                                              F (U)
 DBCSR| Use RMA algorithm                                                      F (U)
 DBCSR| Use Communication thread                                               T (U)
 DBCSR| Communication thread load                                             75 (D)
 DBCSR| MPI: My process id                                                     0
 DBCSR| MPI: Number of processes                                              96
 DBCSR| OMP: Current number of threads                                         4
 DBCSR| OMP: Max number of threads                                             4
 DBCSR| Split modifier for TAS multiplication algorithm                  1.0E+00 (U)


  **** **** ******  **  PROGRAM STARTED AT               2025-04-28 09:18:56.442
 ***** ** ***  *** **   PROGRAM STARTED ON                          i01r07c03s09
 **    ****   ******    PROGRAM STARTED BY                               di38fab
 ***** **    ** ** **   PROGRAM PROCESS ID                               1680019
  **** **  *******  **  PROGRAM STARTED IN /hppfs/scratch/04/di38fab/07_MOL_non_
                                           aug/05_MOL_non_aug/05_MOL/W4-11+ALK/n
                                           2/cc-pVQZ/TDDFT

 CP2K| version string:                 CP2K version 2025.1 (Development Version)
 CP2K| source code revision number:                             unknown revision
 CP2K| cp2kflags: omp libint fftw3 libxc parallel scalapack max_contr=4         
 CP2K| is freely available from                            https://www.cp2k.org/
 CP2K| Program compiled at                         Thu Apr 10 16:20:23 CEST 2025
 CP2K| Program compiled on                                               login01
 CP2K| Program compiled for                                        Supermuc-foss
 CP2K| Data directory path                  /hppfs/work/pn36zo/di38fab/cp2k/data
 CP2K| Input file name                                                    GW.inp

 GLOBAL| Force Environment number                                              1
 GLOBAL| Basis set file name            /hppfs/scratch/04/di38fab/04_TMD/BASIS_A
 GLOBAL| Potential file name            /hppfs/work/pn36zo/di38fab/cp2k/data/ALL
 GLOBAL| MM Potential file name                                     MM_POTENTIAL
 GLOBAL| Coordinate file name                                      __STD_INPUT__
 GLOBAL| Method name                                                        CP2K
 GLOBAL| Project name                                                       MoS2
 GLOBAL| Run type                                                         ENERGY
 GLOBAL| FFT library                                                       FFTW3
 GLOBAL| Diagonalization library                                       ScaLAPACK
 GLOBAL| DGEMM library                                                      BLAS
 GLOBAL| Orthonormality check for eigenvectors                          DISABLED
 GLOBAL| Matrix multiplication library                                 ScaLAPACK
 GLOBAL| All-to-all communication in single precision                          F
 GLOBAL| FFTs using library dependent lengths                                  F
 GLOBAL| Grid backend                                                       AUTO
 GLOBAL| Global print level                                               MEDIUM
 GLOBAL| MPI I/O enabled                                                       T
 GLOBAL| Total number of message passing processes                            96
 GLOBAL| Number of threads for this process                                    4
 GLOBAL| This output is from process                                           0
 GLOBAL| OpenMP stack size per thread (OMP_STACKSIZE)                    default
 GLOBAL| CPU model name             Intel(R) Xeon(R) Platinum 8174 CPU @ 3.10GHz

 MEMORY| system memory details [Kb]
 MEMORY|                        rank 0           min           max       average
 MEMORY| MemTotal             98436708      98436660      98436708      98436667
 MEMORY| MemFree              83847776      83652440      85416072      84305495
 MEMORY| Buffers                     0             0             0             0
 MEMORY| Cached                2425976       2397216       2484188       2416881
 MEMORY| Slab                  1256588       1027916       1266212       1194020
 MEMORY| SReclaimable           272276        239416        278492        264749
 MEMORY| MemLikelyFree        86546028      86404304      88053476      86987126


 *** Fundamental physical constants (SI units) ***

 *** Literature: B. J. Mohr and B. N. Taylor,
 ***             CODATA recommended values of the fundamental physical
 ***             constants: 2006, Web Version 5.1
 ***             http://physics.nist.gov/constants

 Speed of light in vacuum [m/s]                             2.99792458000000E+08
 Magnetic constant or permeability of vacuum [N/A**2]       1.25663706143592E-06
 Electric constant or permittivity of vacuum [F/m]          8.85418781762039E-12
 Planck constant (h) [J*s]                                  6.62606896000000E-34
 Planck constant (h-bar) [J*s]                              1.05457162825177E-34
 Elementary charge [C]                                      1.60217648700000E-19
 Electron mass [kg]                                         9.10938215000000E-31
 Electron g factor [ ]                                     -2.00231930436220E+00
 Proton mass [kg]                                           1.67262163700000E-27
 Fine-structure constant                                    7.29735253760000E-03
 Rydberg constant [1/m]                                     1.09737315685270E+07
 Avogadro constant [1/mol]                                  6.02214179000000E+23
 Boltzmann constant [J/K]                                   1.38065040000000E-23
 Atomic mass unit [kg]                                      1.66053878200000E-27
 Bohr radius [m]                                            5.29177208590000E-11

 *** Conversion factors ***

 [u] -> [a.u.]                                              1.82288848426455E+03
 [Angstrom] -> [Bohr] = [a.u.]                              1.88972613288564E+00
 [a.u.] = [Bohr] -> [Angstrom]                              5.29177208590000E-01
 [a.u.] -> [s]                                              2.41888432650478E-17
 [a.u.] -> [fs]                                             2.41888432650478E-02
 [a.u.] -> [J]                                              4.35974393937059E-18
 [a.u.] -> [N]                                              8.23872205491840E-08
 [a.u.] -> [K]                                              3.15774647902944E+05
 [a.u.] -> [kJ/mol]                                         2.62549961709828E+03
 [a.u.] -> [kcal/mol]                                       6.27509468713739E+02
 [a.u.] -> [Pa]                                             2.94210107994716E+13
 [a.u.] -> [bar]                                            2.94210107994716E+08
 [a.u.] -> [atm]                                            2.90362800883016E+08
 [a.u.] -> [eV]                                             2.72113838565563E+01
 [a.u.] -> [Hz]                                             6.57968392072181E+15
 [a.u.] -> [1/cm] (wave numbers)                            2.19474631370540E+05
 [a.u./Bohr**2] -> [1/cm]                                   5.14048714338585E+03
 

 CELL_TOP| Volume [angstrom^3]:                                     27000.000000
 CELL_TOP| Vector a [angstrom    30.000     0.000     0.000   |a| =    30.000000
 CELL_TOP| Vector b [angstrom     0.000    30.000     0.000   |b| =    30.000000
 CELL_TOP| Vector c [angstrom     0.000     0.000    30.000   |c| =    30.000000
 CELL_TOP| Angle (b,c), alpha [degree]:                                90.000000
 CELL_TOP| Angle (a,c), beta  [degree]:                                90.000000
 CELL_TOP| Angle (a,b), gamma [degree]:                                90.000000
 CELL_TOP| Numerically orthorhombic:                                         YES
 CELL_TOP| Periodicity                                                      NONE

 GENERATE|  Preliminary Number of Bonds generated:                             0
 GENERATE|  Achieved consistency in connectivity generation.

 CELL| Volume [angstrom^3]:                                         27000.000000
 CELL| Vector a [angstrom]:      30.000     0.000     0.000   |a| =    30.000000
 CELL| Vector b [angstrom]:       0.000    30.000     0.000   |b| =    30.000000
 CELL| Vector c [angstrom]:       0.000     0.000    30.000   |c| =    30.000000
 CELL| Angle (b,c), alpha [degree]:                                    90.000000
 CELL| Angle (a,c), beta  [degree]:                                    90.000000
 CELL| Angle (a,b), gamma [degree]:                                    90.000000
 CELL| Numerically orthorhombic:                                             YES
 CELL| Periodicity                                                          NONE

 CELL_REF| Volume [angstrom^3]:                                     27000.000000
 CELL_REF| Vector a [angstrom    30.000     0.000     0.000   |a| =    30.000000
 CELL_REF| Vector b [angstrom     0.000    30.000     0.000   |b| =    30.000000
 CELL_REF| Vector c [angstrom     0.000     0.000    30.000   |c| =    30.000000
 CELL_REF| Angle (b,c), alpha [degree]:                                90.000000
 CELL_REF| Angle (a,c), beta  [degree]:                                90.000000
 CELL_REF| Angle (a,b), gamma [degree]:                                90.000000
 CELL_REF| Numerically orthorhombic:                                         YES
 CELL_REF| Periodicity                                                      NONE

 *******************************************************************************
 *******************************************************************************
 **                                                                           **
 **     #####                         ##              ##                      **
 **    ##   ##            ##          ##              ##                      **
 **   ##     ##                       ##            ######                    **
 **   ##     ##  ##   ##  ##   #####  ##  ##   ####   ##    #####    #####    **
 **   ##     ##  ##   ##  ##  ##      ## ##   ##      ##   ##   ##  ##   ##   **
 **   ##  ## ##  ##   ##  ##  ##      ####     ###    ##   ######   ######    **
 **    ##  ###   ##   ##  ##  ##      ## ##      ##   ##   ##       ##        **
 **     #######   #####   ##   #####  ##  ##  ####    ##    #####   ##        **
 **           ##                                                    ##        **
 **                                                                           **
 **                                                ... make the atoms dance   **
 **                                                                           **
 **            Copyright (C) by CP2K developers group (2000-2025)             **
 **                      J. Chem. Phys. 152, 194103 (2020)                    **
 **                                                                           **
 *******************************************************************************

 DFT| Spin restricted Kohn-Sham (RKS) calculation                            RKS
 DFT| Multiplicity                                                             1
 DFT| Number of spin states                                                    1
 DFT| Charge                                                                   0
 DFT| Self-interaction correction (SIC)                                       NO
 DFT| Cutoffs: density                                              1.000000E-10
 DFT|          gradient                                             1.000000E-10
 DFT|          tau                                                  1.000000E-10
 DFT|          cutoff_smoothing_range                               0.000000E+00
 DFT| XC density smoothing                                                  NONE
 DFT| XC derivatives                                                          PW

 FUNCTIONAL| PBE:
 FUNCTIONAL| J.P.Perdew, K.Burke, M.Ernzerhof, Phys. Rev. Letter, vol. 77, n 18,
 FUNCTIONAL|  pp. 3865-3868, (1996)sx=0.750sc=1.000{spin unpolarized}           


 QS| Method:                                                                GAPW
 QS| Density plane wave grid type                        NON-SPHERICAL FULLSPACE
 QS| Number of grid levels:                                                    4
 QS| Density cutoff [a.u.]:                                                250.0
 QS| Multi grid cutoff [a.u.]: 1) grid level                               250.0
 QS|                           2) grid level                                83.3
 QS|                           3) grid level                                27.8
 QS|                           4) grid level                                 9.3
 QS| Grid level progression factor:                                          3.0
 QS| Relative density cutoff [a.u.]:                                        50.0
 QS| Interaction thresholds: eps_pgf_orb:                                1.0E-12
 QS|                         eps_filter_matrix:                          0.0E+00
 QS|                         eps_core_charge:                            1.0E-14
 QS|                         eps_rho_gspace:                             1.0E-12
 QS|                         eps_rho_rspace:                             1.0E-12
 QS|                         eps_gvg_rspace:                             1.0E-06
 QS|                         eps_ppl:                                    1.0E-02
 QS|                         eps_ppnl:                                   1.0E-08
 QS| GAPW|      One center basis from orbital basis primitives
 QS| GAPW|                   eps_fit:                                    1.0E-04
 QS| GAPW|                   eps_iso:                                    1.0E-12
 QS| GAPW|                   eps_svd:                                    1.0E-08
 QS| GAPW|                   eps_cpc:                                    1.0E-12
 QS| GAPW|   atom-r-grid: quadrature:                                     GC_LOG
 QS| GAPW|      atom-s-grid:  max l :                                          8
 QS| GAPW|      max_l_rho0 :                                                   2


 ATOMIC KIND INFORMATION

  1. Atomic kind: N                                     Number of atoms:       2

     Orbital Basis Set                                                   cc-pVQZ

       Number of orbital shell sets:                                           5
       Number of orbital shells:                                              15
       Number of primitive Cartesian functions:                               24
       Number of Cartesian basis functions:                                   70
       Number of spherical basis functions:                                   55
       Norm type:                                                              2

       Normalised Cartesian orbitals:

                        Set   Shell   Orbital            Exponent    Coefficient

                          1       1    1px              49.330000       0.000000
                                                        11.370000       0.000000
                                                         3.435000       0.000000
                                                         1.182000       1.756758
                                                         0.417300       0.000000
                                                         0.142800       0.000000
                          1       1    1py              49.330000       0.000000
                                                        11.370000       0.000000
                                                         3.435000       0.000000
                                                         1.182000       1.756758
                                                         0.417300       0.000000
                                                         0.142800       0.000000
                          1       1    1pz              49.330000       0.000000
                                                        11.370000       0.000000
                                                         3.435000       0.000000
                                                         1.182000       1.756758
                                                         0.417300       0.000000
                                                         0.142800       0.000000

                          1       2    2px              49.330000       1.031073
                                                        11.370000       1.129768
                                                         3.435000       0.993381
                                                         1.182000       0.612971
                                                         0.417300       0.219425
                                                         0.142800       0.030646
                          1       2    2py              49.330000       1.031073
                                                        11.370000       1.129768
                                                         3.435000       0.993381
                                                         1.182000       0.612971
                                                         0.417300       0.219425
                                                         0.142800       0.030646
                          1       2    2pz              49.330000       1.031073
                                                        11.370000       1.129768
                                                         3.435000       0.993381
                                                         1.182000       0.612971
                                                         0.417300       0.219425
                                                         0.142800       0.030646

                          1       3    3px              49.330000       0.000000
                                                        11.370000       0.000000
                                                         3.435000       0.000000
                                                         1.182000       0.000000
                                                         0.417300       0.478080
                                                         0.142800       0.000000
                          1       3    3py              49.330000       0.000000
                                                        11.370000       0.000000
                                                         3.435000       0.000000
                                                         1.182000       0.000000
                                                         0.417300       0.478080
                                                         0.142800       0.000000
                          1       3    3pz              49.330000       0.000000
                                                        11.370000       0.000000
                                                         3.435000       0.000000
                                                         1.182000       0.000000
                                                         0.417300       0.478080
                                                         0.142800       0.000000

                          1       4    4px              49.330000       0.000000
                                                        11.370000       0.000000
                                                         3.435000       0.000000
                                                         1.182000       0.000000
                                                         0.417300       0.000000
                                                         0.142800       0.125127
                          1       4    4py              49.330000       0.000000
                                                        11.370000       0.000000
                                                         3.435000       0.000000
                                                         1.182000       0.000000
                                                         0.417300       0.000000
                                                         0.142800       0.125127
                          1       4    4pz              49.330000       0.000000
                                                        11.370000       0.000000
                                                         3.435000       0.000000
                                                         1.182000       0.000000
                                                         0.417300       0.000000
                                                         0.142800       0.125127

                          2       1    1s            45840.000000       0.205414
                                                      6868.000000       0.385524
                                                      1563.000000       0.664193
                                                       442.400000       1.067821
                                                       144.300000       1.576994
                                                        52.180000       2.031073
                                                        20.340000       2.079662
                                                         8.381000       1.396111
                                                         3.529000       0.399383
                                                         1.054000       0.012576
                                                         0.411800      -0.001006
                                                         0.155200       0.000168

                          2       2    2s            45840.000000       0.000000
                                                      6868.000000       0.000000
                                                      1563.000000       0.000000
                                                       442.400000       0.000000
                                                       144.300000       0.000000
                                                        52.180000       0.000000
                                                        20.340000       0.000000
                                                         8.381000       0.000000
                                                         3.529000       0.000000
                                                         1.054000       0.741379
                                                         0.411800       0.000000
                                                         0.155200       0.000000

                          2       3    3s            45840.000000       0.000000
                                                      6868.000000       0.000000
                                                      1563.000000       0.000000
                                                       442.400000       0.000000
                                                       144.300000       0.000000
                                                        52.180000       0.000000
                                                        20.340000       0.000000
                                                         8.381000       0.000000
                                                         3.529000       0.000000
                                                         1.054000       0.000000
                                                         0.411800       0.366374
                                                         0.155200       0.000000

                          2       4    4s            45840.000000      -0.044655
                                                      6868.000000      -0.085493
                                                      1563.000000      -0.145985
                                                       442.400000      -0.239112
                                                       144.300000      -0.355066
                                                        52.180000      -0.489660
                                                        20.340000      -0.546615
                                                         8.381000      -0.515083
                                                         3.529000      -0.213527
                                                         1.054000       0.207526
                                                         0.411800       0.214505
                                                         0.155200       0.050054

                          2       5    5s            45840.000000       0.000000
                                                      6868.000000       0.000000
                                                      1563.000000       0.000000
                                                       442.400000       0.000000
                                                       144.300000       0.000000
                                                        52.180000       0.000000
                                                        20.340000       0.000000
                                                         8.381000       0.000000
                                                         3.529000       0.000000
                                                         1.054000       0.000000
                                                         0.411800       0.000000
                                                         0.155200       0.176230

                          3       1    1dx2              2.837000      10.207357
                                                         0.968000       0.000000
                                                         0.335000       0.000000
                          3       1    1dxy              2.837000      17.679661
                                                         0.968000       0.000000
                                                         0.335000       0.000000
                          3       1    1dxz              2.837000      17.679661
                                                         0.968000       0.000000
                                                         0.335000       0.000000
                          3       1    1dy2              2.837000      10.207357
                                                         0.968000       0.000000
                                                         0.335000       0.000000
                          3       1    1dyz              2.837000      17.679661
                                                         0.968000       0.000000
                                                         0.335000       0.000000
                          3       1    1dz2              2.837000      10.207357
                                                         0.968000       0.000000
                                                         0.335000       0.000000

                          3       2    2dx2              2.837000       0.000000
                                                         0.968000       1.554860
                                                         0.335000       0.000000
                          3       2    2dxy              2.837000       0.000000
                                                         0.968000       2.693097
                                                         0.335000       0.000000
                          3       2    2dxz              2.837000       0.000000
                                                         0.968000       2.693097
                                                         0.335000       0.000000
                          3       2    2dy2              2.837000       0.000000
                                                         0.968000       1.554860
                                                         0.335000       0.000000
                          3       2    2dyz              2.837000       0.000000
                                                         0.968000       2.693097
                                                         0.335000       0.000000
                          3       2    2dz2              2.837000       0.000000
                                                         0.968000       1.554860
                                                         0.335000       0.000000

                          3       3    3dx2              2.837000       0.000000
                                                         0.968000       0.000000
                                                         0.335000       0.242794
                          3       3    3dxy              2.837000       0.000000
                                                         0.968000       0.000000
                                                         0.335000       0.420531
                          3       3    3dxz              2.837000       0.000000
                                                         0.968000       0.000000
                                                         0.335000       0.420531
                          3       3    3dy2              2.837000       0.000000
                                                         0.968000       0.000000
                                                         0.335000       0.242794
                          3       3    3dyz              2.837000       0.000000
                                                         0.968000       0.000000
                                                         0.335000       0.420531
                          3       3    3dz2              2.837000       0.000000
                                                         0.968000       0.000000
                                                         0.335000       0.242794

                          4       1    1fx3              2.027000       7.217310
                                                         0.685000       0.000000
                          4       1    1fx2y             2.027000      16.138397
                                                         0.685000       0.000000
                          4       1    1fx2z             2.027000      16.138397
                                                         0.685000       0.000000
                          4       1    1fxy2             2.027000      16.138397
                                                         0.685000       0.000000
                          4       1    1fxyz             2.027000      27.952523
                                                         0.685000       0.000000
                          4       1    1fxz2             2.027000      16.138397
                                                         0.685000       0.000000
                          4       1    1fy3              2.027000       7.217310
                                                         0.685000       0.000000
                          4       1    1fy2z             2.027000      16.138397
                                                         0.685000       0.000000
                          4       1    1fyz2             2.027000      16.138397
                                                         0.685000       0.000000
                          4       1    1fz3              2.027000       7.217310
                                                         0.685000       0.000000

                          4       2    2fx3              2.027000       0.000000
                                                         0.685000       0.628432
                          4       2    2fx2y             2.027000       0.000000
                                                         0.685000       1.405216
                          4       2    2fx2z             2.027000       0.000000
                                                         0.685000       1.405216
                          4       2    2fxy2             2.027000       0.000000
                                                         0.685000       1.405216
                          4       2    2fxyz             2.027000       0.000000
                                                         0.685000       2.433906
                          4       2    2fxz2             2.027000       0.000000
                                                         0.685000       1.405216
                          4       2    2fy3              2.027000       0.000000
                                                         0.685000       0.628432
                          4       2    2fy2z             2.027000       0.000000
                                                         0.685000       1.405216
                          4       2    2fyz2             2.027000       0.000000
                                                         0.685000       1.405216
                          4       2    2fz3              2.027000       0.000000
                                                         0.685000       0.628432

                          5       1    1gx4              1.427000       2.958703
                          5       1    1gx3y             1.427000       7.827992
                          5       1    1gx3z             1.427000       7.827992
                          5       1    1gx2y2            1.427000      10.105894
                          5       1    1gx2yz            1.427000      17.503922
                          5       1    1gx2z2            1.427000      10.105894
                          5       1    1gxy3             1.427000       7.827992
                          5       1    1gxy2z            1.427000      17.503922
                          5       1    1gxyz2            1.427000      17.503922
                          5       1    1gxz3             1.427000       7.827992
                          5       1    1gy4              1.427000       2.958703
                          5       1    1gy3z             1.427000       7.827992
                          5       1    1gy2z2            1.427000      10.105894
                          5       1    1gyz3             1.427000       7.827992
                          5       1    1gz4              1.427000       2.958703

     RI Auxiliary Basis Set                                        cc-pVQZ-RIFIT

       Number of orbital shell sets:                                          30
       Number of orbital shells:                                              30
       Number of primitive Cartesian functions:                               30
       Number of Cartesian basis functions:                                  181
       Number of spherical basis functions:                                  132
       Norm type:                                                              2

       Normalised Cartesian orbitals:

                        Set   Shell   Orbital            Exponent    Coefficient

                          1       1    1px               0.349537       0.383095
                          1       1    1py               0.349537       0.383095
                          1       1    1pz               0.349537       0.383095

                          2       1    1s                0.358607       0.330274

                          3       1    1dx2              0.469488       0.438281
                          3       1    1dxy              0.469488       0.759125
                          3       1    1dxz              0.469488       0.759125
                          3       1    1dy2              0.469488       0.438281
                          3       1    1dyz              0.469488       0.759125
                          3       1    1dz2              0.469488       0.438281

                          4       1    1fx3              0.481534       0.284357
                          4       1    1fx2y             0.481534       0.635842
                          4       1    1fx2z             0.481534       0.635842
                          4       1    1fxy2             0.481534       0.635842
                          4       1    1fxyz             0.481534       1.101310
                          4       1    1fxz2             0.481534       0.635842
                          4       1    1fy3              0.481534       0.284357
                          4       1    1fy2z             0.481534       0.635842
                          4       1    1fyz2             0.481534       0.635842
                          4       1    1fz3              0.481534       0.284357

                          5       1    1s                0.594815       0.482722

                          6       1    1px               0.695074       0.904646
                          6       1    1py               0.695074       0.904646
                          6       1    1pz               0.695074       0.904646

                          7       1    1dx2              0.740932       0.973916
                          7       1    1dxy              0.740932       1.686871
                          7       1    1dxz              0.740932       1.686871
                          7       1    1dy2              0.740932       0.973916
                          7       1    1dyz              0.740932       1.686871
                          7       1    1dz2              0.740932       0.973916

                          8       1    1gx4              0.970774       1.025675
                          8       1    1gx3y             0.970774       2.713681
                          8       1    1gx3z             0.970774       2.713681
                          8       1    1gx2y2            0.970774       3.503348
                          8       1    1gx2yz            0.970774       6.067976
                          8       1    1gx2z2            0.970774       3.503348
                          8       1    1gxy3             0.970774       2.713681
                          8       1    1gxy2z            0.970774       6.067976
                          8       1    1gxyz2            0.970774       6.067976
                          8       1    1gxz3             0.970774       2.713681
                          8       1    1gy4              0.970774       1.025675
                          8       1    1gy3z             0.970774       2.713681
                          8       1    1gy2z2            0.970774       3.503348
                          8       1    1gyz3             0.970774       2.713681
                          8       1    1gz4              0.970774       1.025675

                          9       1    1fx3              1.033134       1.584189
                          9       1    1fx2y             1.033134       3.542354
                          9       1    1fx2z             1.033134       3.542354
                          9       1    1fxy2             1.033134       3.542354
                          9       1    1fxyz             1.033134       6.135536
                          9       1    1fxz2             1.033134       3.542354
                          9       1    1fy3              1.033134       1.584189
                          9       1    1fy2z             1.033134       3.542354
                          9       1    1fyz2             1.033134       3.542354
                          9       1    1fz3              1.033134       1.584189

                         10       1    1s                1.137057       0.784778

                         11       1    1dx2              1.498977       3.342341
                         11       1    1dxy              1.498977       5.789104
                         11       1    1dxz              1.498977       5.789104
                         11       1    1dy2              1.498977       3.342341
                         11       1    1dyz              1.498977       5.789104
                         11       1    1dz2              1.498977       3.342341

                         12       1    1px               1.700336       2.767634
                         12       1    1py               1.700336       2.767634
                         12       1    1pz               1.700336       2.767634

                         13       1    1gx4              1.925535       6.744531
                         13       1    1gx3y             1.925535      17.844351
                         13       1    1gx3z             1.925535      17.844351
                         13       1    1gx2y2            1.925535      23.036959
                         13       1    1gx2yz            1.925535      39.901183
                         13       1    1gx2z2            1.925535      23.036959
                         13       1    1gxy3             1.925535      17.844351
                         13       1    1gxy2z            1.925535      39.901183
                         13       1    1gxyz2            1.925535      39.901183
                         13       1    1gxz3             1.925535      17.844351
                         13       1    1gy4              1.925535       6.744531
                         13       1    1gy3z             1.925535      17.844351
                         13       1    1gy2z2            1.925535      23.036959
                         13       1    1gyz3             1.925535      17.844351
                         13       1    1gz4              1.925535       6.744531

                         14       1    1s                2.054915       1.223223

                         15       1    1hx5              2.128192       8.637319
                         15       1    1hx4y             2.128192      25.911958
                         15       1    1hx4z             2.128192      25.911958
                         15       1    1hx3y2            2.128192      39.581169
                         15       1    1hx3yz            2.128192      68.556596
                         15       1    1hx3z2            2.128192      39.581169
                         15       1    1hx2y3            2.128192      39.581169
                         15       1    1hx2y2z           2.128192      88.506184
                         15       1    1hx2yz2           2.128192      88.506184
                         15       1    1hx2z3            2.128192      39.581169
                         15       1    1hxy4             2.128192      25.911958
                         15       1    1hxy3z            2.128192      68.556596
                         15       1    1hxy2z2           2.128192      88.506184
                         15       1    1hxyz3            2.128192      68.556596
                         15       1    1hxz4             2.128192      25.911958
                         15       1    1hy5              2.128192       8.637319
                         15       1    1hy4z             2.128192      25.911958
                         15       1    1hy3z2            2.128192      39.581169
                         15       1    1hy2z3            2.128192      39.581169
                         15       1    1hyz4             2.128192      25.911958
                         15       1    1hz5              2.128192       8.637319

                         16       1    1fx3              2.495360      11.521371
                         16       1    1fx2y             2.495360      25.762568
                         16       1    1fx2z             2.495360      25.762568
                         16       1    1fxy2             2.495360      25.762568
                         16       1    1fxyz             2.495360      44.622076
                         16       1    1fxz2             2.495360      25.762568
                         16       1    1fy3              2.495360      11.521371
                         16       1    1fy2z             2.495360      25.762568
                         16       1    1fyz2             2.495360      25.762568
                         16       1    1fz3              2.495360      11.521371

                         17       1    1px               2.821224       5.211791
                         17       1    1py               2.821224       5.211791
                         17       1    1pz               2.821224       5.211791

                         18       1    1dx2              3.362529      13.742791
                         18       1    1dxy              3.362529      23.803213
                         18       1    1dxz              3.362529      23.803213
                         18       1    1dy2              3.362529      13.742791
                         18       1    1dyz              3.362529      23.803213
                         18       1    1dz2              3.362529      13.742791

                         19       1    1fx3              3.617357      26.566542
                         19       1    1fx2y             3.617357      59.404595
                         19       1    1fx2z             3.617357      59.404595
                         19       1    1fxy2             3.617357      59.404595
                         19       1    1fxyz             3.617357     102.891776
                         19       1    1fxz2             3.617357      59.404595
                         19       1    1fy3              3.617357      26.566542
                         19       1    1fy2z             3.617357      59.404595
                         19       1    1fyz2             3.617357      59.404595
                         19       1    1fz3              3.617357      26.566542

                         20       1    1gx4              4.185085      57.032462
                         20       1    1gx3y             4.185085     150.893711
                         20       1    1gx3z             4.185085     150.893711
                         20       1    1gx2y2            4.185085     194.802943
                         20       1    1gx2yz            4.185085     337.408594
                         20       1    1gx2z2            4.185085     194.802943
                         20       1    1gxy3             4.185085     150.893711
                         20       1    1gxy2z            4.185085     337.408594
                         20       1    1gxyz2            4.185085     337.408594
                         20       1    1gxz3             4.185085     150.893711
                         20       1    1gy4              4.185085      57.032462
                         20       1    1gy3z             4.185085     150.893711
                         20       1    1gy2z2            4.185085     194.802943
                         20       1    1gyz3             4.185085     150.893711
                         20       1    1gz4              4.185085      57.032462

                         21       1    1px               5.030349      10.738355
                         21       1    1py               5.030349      10.738355
                         21       1    1pz               5.030349      10.738355

                         22       1    1s                5.158711       2.439585

                         23       1    1dx2              8.355224      67.582792
                         23       1    1dxy              8.355224     117.056829
                         23       1    1dxz              8.355224     117.056829
                         23       1    1dy2              8.355224      67.582792
                         23       1    1dyz              8.355224     117.056829
                         23       1    1dz2              8.355224      67.582792

                         24       1    1fx3              8.479765     180.641715
                         24       1    1fx2y             8.479765     403.927154
                         24       1    1fx2z             8.479765     403.927154
                         24       1    1fxy2             8.479765     403.927154
                         24       1    1fxyz             8.479765     699.622354
                         24       1    1fxz2             8.479765     403.927154
                         24       1    1fy3              8.479765     180.641715
                         24       1    1fy2z             8.479765     403.927154
                         24       1    1fyz2             8.479765     403.927154
                         24       1    1fz3              8.479765     180.641715

                         25       1    1s               14.133379       5.195108

                         26       1    1px              16.924786      48.932126
                         26       1    1py              16.924786      48.932126
                         26       1    1pz              16.924786      48.932126

                         27       1    1dx2             25.136208     464.444714
                         27       1    1dxy             25.136208     804.441842
                         27       1    1dxz             25.136208     804.441842
                         27       1    1dy2             25.136208     464.444714
                         27       1    1dyz             25.136208     804.441842
                         27       1    1dz2             25.136208     464.444714

                         28       1    1s               61.812130      15.711418

                         29       1    1px              66.749956     271.959239
                         29       1    1py              66.749956     271.959239
                         29       1    1pz              66.749956     271.959239

                         30       1    1s              284.729768      49.400887

       Atomic covalent radius [Angstrom]:                                  0.750

       Atomic van der Waals radius [Angstrom]:                             1.550

     The atoms of this atomic kind are PAW atoms (GAPW):
       Hard Gaussian function radius:                                      1.512
       Rho0 radius:                                                        1.512
       Maximum GTO radius used for PAW projector construction:            24.566

     GAPW Soft Basis Set                                            cc-pVQZ_soft

       Number of orbital shell sets:                                           5
       Number of orbital shells:                                              15
       Number of primitive Cartesian functions:                               14
       Number of Cartesian basis functions:                                   70
       Number of spherical basis functions:                                   55
       Norm type:                                                              2

       Normalised Cartesian orbitals:

                        Set   Shell   Orbital            Exponent    Coefficient

                          1       1    1px               3.435000       0.000000
                                                         1.182000       1.756758
                                                         0.417300       0.000000
                                                         0.142800       0.000000
                          1       1    1py               3.435000       0.000000
                                                         1.182000       1.756758
                                                         0.417300       0.000000
                                                         0.142800       0.000000
                          1       1    1pz               3.435000       0.000000
                                                         1.182000       1.756758
                                                         0.417300       0.000000
                                                         0.142800       0.000000

                          1       2    2px               3.435000       0.993381
                                                         1.182000       0.612971
                                                         0.417300       0.219425
                                                         0.142800       0.030646
                          1       2    2py               3.435000       0.993381
                                                         1.182000       0.612971
                                                         0.417300       0.219425
                                                         0.142800       0.030646
                          1       2    2pz               3.435000       0.993381
                                                         1.182000       0.612971
                                                         0.417300       0.219425
                                                         0.142800       0.030646

                          1       3    3px               3.435000       0.000000
                                                         1.182000       0.000000
                                                         0.417300       0.478080
                                                         0.142800       0.000000
                          1       3    3py               3.435000       0.000000
                                                         1.182000       0.000000
                                                         0.417300       0.478080
                                                         0.142800       0.000000
                          1       3    3pz               3.435000       0.000000
                                                         1.182000       0.000000
                                                         0.417300       0.478080
                                                         0.142800       0.000000

                          1       4    4px               3.435000       0.000000
                                                         1.182000       0.000000
                                                         0.417300       0.000000
                                                         0.142800       0.125127
                          1       4    4py               3.435000       0.000000
                                                         1.182000       0.000000
                                                         0.417300       0.000000
                                                         0.142800       0.125127
                          1       4    4pz               3.435000       0.000000
                                                         1.182000       0.000000
                                                         0.417300       0.000000
                                                         0.142800       0.125127

                          2       1    1s                3.529000       0.399383
                                                         1.054000       0.012576
                                                         0.411800      -0.001006
                                                         0.155200       0.000168

                          2       2    2s                3.529000       0.000000
                                                         1.054000       0.741379
                                                         0.411800       0.000000
                                                         0.155200       0.000000

                          2       3    3s                3.529000       0.000000
                                                         1.054000       0.000000
                                                         0.411800       0.366374
                                                         0.155200       0.000000

                          2       4    4s                3.529000      -0.213527
                                                         1.054000       0.207526
                                                         0.411800       0.214505
                                                         0.155200       0.050054

                          2       5    5s                3.529000       0.000000
                                                         1.054000       0.000000
                                                         0.411800       0.000000
                                                         0.155200       0.176230

                          3       1    1dx2              2.837000      10.207357
                                                         0.968000       0.000000
                                                         0.335000       0.000000
                          3       1    1dxy              2.837000      17.679661
                                                         0.968000       0.000000
                                                         0.335000       0.000000
                          3       1    1dxz              2.837000      17.679661
                                                         0.968000       0.000000
                                                         0.335000       0.000000
                          3       1    1dy2              2.837000      10.207357
                                                         0.968000       0.000000
                                                         0.335000       0.000000
                          3       1    1dyz              2.837000      17.679661
                                                         0.968000       0.000000
                                                         0.335000       0.000000
                          3       1    1dz2              2.837000      10.207357
                                                         0.968000       0.000000
                                                         0.335000       0.000000

                          3       2    2dx2              2.837000       0.000000
                                                         0.968000       1.554860
                                                         0.335000       0.000000
                          3       2    2dxy              2.837000       0.000000
                                                         0.968000       2.693097
                                                         0.335000       0.000000
                          3       2    2dxz              2.837000       0.000000
                                                         0.968000       2.693097
                                                         0.335000       0.000000
                          3       2    2dy2              2.837000       0.000000
                                                         0.968000       1.554860
                                                         0.335000       0.000000
                          3       2    2dyz              2.837000       0.000000
                                                         0.968000       2.693097
                                                         0.335000       0.000000
                          3       2    2dz2              2.837000       0.000000
                                                         0.968000       1.554860
                                                         0.335000       0.000000

                          3       3    3dx2              2.837000       0.000000
                                                         0.968000       0.000000
                                                         0.335000       0.242794
                          3       3    3dxy              2.837000       0.000000
                                                         0.968000       0.000000
                                                         0.335000       0.420531
                          3       3    3dxz              2.837000       0.000000
                                                         0.968000       0.000000
                                                         0.335000       0.420531
                          3       3    3dy2              2.837000       0.000000
                                                         0.968000       0.000000
                                                         0.335000       0.242794
                          3       3    3dyz              2.837000       0.000000
                                                         0.968000       0.000000
                                                         0.335000       0.420531
                          3       3    3dz2              2.837000       0.000000
                                                         0.968000       0.000000
                                                         0.335000       0.242794

                          4       1    1fx3              2.027000       7.217310
                                                         0.685000       0.000000
                          4       1    1fx2y             2.027000      16.138397
                                                         0.685000       0.000000
                          4       1    1fx2z             2.027000      16.138397
                                                         0.685000       0.000000
                          4       1    1fxy2             2.027000      16.138397
                                                         0.685000       0.000000
                          4       1    1fxyz             2.027000      27.952523
                                                         0.685000       0.000000
                          4       1    1fxz2             2.027000      16.138397
                                                         0.685000       0.000000
                          4       1    1fy3              2.027000       7.217310
                                                         0.685000       0.000000
                          4       1    1fy2z             2.027000      16.138397
                                                         0.685000       0.000000
                          4       1    1fyz2             2.027000      16.138397
                                                         0.685000       0.000000
                          4       1    1fz3              2.027000       7.217310
                                                         0.685000       0.000000

                          4       2    2fx3              2.027000       0.000000
                                                         0.685000       0.628432
                          4       2    2fx2y             2.027000       0.000000
                                                         0.685000       1.405216
                          4       2    2fx2z             2.027000       0.000000
                                                         0.685000       1.405216
                          4       2    2fxy2             2.027000       0.000000
                                                         0.685000       1.405216
                          4       2    2fxyz             2.027000       0.000000
                                                         0.685000       2.433906
                          4       2    2fxz2             2.027000       0.000000
                                                         0.685000       1.405216
                          4       2    2fy3              2.027000       0.000000
                                                         0.685000       0.628432
                          4       2    2fy2z             2.027000       0.000000
                                                         0.685000       1.405216
                          4       2    2fyz2             2.027000       0.000000
                                                         0.685000       1.405216
                          4       2    2fz3              2.027000       0.000000
                                                         0.685000       0.628432

                          5       1    1gx4              1.427000       2.958703
                          5       1    1gx3y             1.427000       7.827992
                          5       1    1gx3z             1.427000       7.827992
                          5       1    1gx2y2            1.427000      10.105894
                          5       1    1gx2yz            1.427000      17.503922
                          5       1    1gx2z2            1.427000      10.105894
                          5       1    1gxy3             1.427000       7.827992
                          5       1    1gxy2z            1.427000      17.503922
                          5       1    1gxyz2            1.427000      17.503922
                          5       1    1gxz3             1.427000       7.827992
                          5       1    1gy4              1.427000       2.958703
                          5       1    1gy3z             1.427000       7.827992
                          5       1    1gy2z2            1.427000      10.105894
                          5       1    1gyz3             1.427000       7.827992
                          5       1    1gz4              1.427000       2.958703

     AE Potential information for                                            ALL

       Description:                                       All-electron potential
                                          Krack, Parrinello, PCCP 2, 2105 (2000)

       Gaussian exponent of the core charge distribution:               5.979100
       Electronic configuration (s p d ...):                           4   3   0


 MOLECULE KIND INFORMATION


 All atoms are their own molecule, skipping detailed information


 TOTAL NUMBERS AND MAXIMUM NUMBERS

  Total number of            - Atomic kinds:                                   1
                             - Atoms:                                          2
                             - Shell sets:                                    10
                             - Shells:                                        30
                             - Primitive Cartesian functions:                 48
                             - Cartesian basis functions:                    140
                             - Spherical basis functions:                    110

  Maximum angular momentum of the orbital basis functions:                     4


 MODULE QUICKSTEP: ATOMIC COORDINATES IN ANGSTROM

   Atom Kind Element         X             Y             Z       Z(eff)     Mass
      1    1 N     7     15.550150     15.000000     15.000000   7.0000  14.0067
      2    1 N     7     14.449850     15.000000     15.000000   7.0000  14.0067



 SCF PARAMETERS         Density guess:                                   RESTART
                        --------------------------------------------------------
                        max_scf:                                             500
                        max_scf_history:                                       0
                        max_diis:                                              4
                        --------------------------------------------------------
                        eps_scf:                                        1.00E-06
                        eps_scf_history:                                0.00E+00
                        eps_diis:                                       1.00E-01
                        eps_eigval:                                     1.00E-05
                        --------------------------------------------------------
                        level_shift [a.u.]:                             0.000000
                        --------------------------------------------------------
                        Outer loop SCF in use 
                        No variables optimised in outer loop
                        eps_scf                                         1.00E-06
                        max_scf                                               20
                        No outer loop optimization
                        step_size                                       5.00E-01

 PW_GRID| Information for grid number                                          1
 PW_GRID| Grid distributed over                                    96 processors
 PW_GRID| Real space group dimensions                                    96    1
 PW_GRID| the grid is blocked:                                                NO
 PW_GRID| Cutoff [a.u.]                                                    250.0
 PW_GRID| spherical cutoff:                                                   NO
 PW_GRID|   Bounds   1           -202     202                Points:         405
 PW_GRID|   Bounds   2           -202     202                Points:         405
 PW_GRID|   Bounds   3           -202     202                Points:         405
 PW_GRID| Volume element (a.u.^3)  0.2743E-02     Volume (a.u.^3)    182205.0337
 PW_GRID| Grid span                                                    FULLSPACE
 PW_GRID|   Distribution                         Average         Max         Min
 PW_GRID|   G-Vectors                           691980.5      692145      691740
 PW_GRID|   G-Rays                                1708.6        1709        1708
 PW_GRID|   Real Space Points                   691980.5      820125      656100

 PW_GRID| Information for grid number                                          2
 PW_GRID| Number of the reference grid                                         1
 PW_GRID| Grid distributed over                                    96 processors
 PW_GRID| Real space group dimensions                                    96    1
 PW_GRID| the grid is blocked:                                                NO
 PW_GRID| Cutoff [a.u.]                                                     83.3
 PW_GRID| spherical cutoff:                                                   NO
 PW_GRID|   Bounds   1           -120     119                Points:         240
 PW_GRID|   Bounds   2           -120     119                Points:         240
 PW_GRID|   Bounds   3           -120     119                Points:         240
 PW_GRID| Volume element (a.u.^3)  0.1318E-01     Volume (a.u.^3)    182205.0337
 PW_GRID| Grid span                                                    FULLSPACE
 PW_GRID|   Distribution                         Average         Max         Min
 PW_GRID|   G-Vectors                           144000.0      144480      143760
 PW_GRID|   G-Rays                                 600.0         602         599
 PW_GRID|   Real Space Points                   144000.0      172800      115200

 PW_GRID| Information for grid number                                          3
 PW_GRID| Number of the reference grid                                         1
 PW_GRID| Grid distributed over                                    96 processors
 PW_GRID| Real space group dimensions                                    96    1
 PW_GRID| the grid is blocked:                                                NO
 PW_GRID| Cutoff [a.u.]                                                     27.8
 PW_GRID| spherical cutoff:                                                   NO
 PW_GRID|   Bounds   1            -67      67                Points:         135
 PW_GRID|   Bounds   2            -67      67                Points:         135
 PW_GRID|   Bounds   3            -67      67                Points:         135
 PW_GRID| Volume element (a.u.^3)  0.7406E-01     Volume (a.u.^3)    182205.0337
 PW_GRID| Grid span                                                    FULLSPACE
 PW_GRID|   Distribution                         Average         Max         Min
 PW_GRID|   G-Vectors                            25628.9       25785       25515
 PW_GRID|   G-Rays                                 189.8         191         189
 PW_GRID|   Real Space Points                    25628.9       36450       18225

 PW_GRID| Information for grid number                                          4
 PW_GRID| Number of the reference grid                                         1
 PW_GRID| Grid distributed over                                    96 processors
 PW_GRID| Real space group dimensions                                     8   12
 PW_GRID| the grid is blocked:                                                NO
 PW_GRID| Cutoff [a.u.]                                                      9.3
 PW_GRID| spherical cutoff:                                                   NO
 PW_GRID|   Bounds   1            -40      39                Points:          80
 PW_GRID|   Bounds   2            -40      39                Points:          80
 PW_GRID|   Bounds   3            -40      39                Points:          80
 PW_GRID| Volume element (a.u.^3)  0.3559         Volume (a.u.^3)    182205.0337
 PW_GRID| Grid span                                                    FULLSPACE
 PW_GRID|   Distribution                         Average         Max         Min
 PW_GRID|   G-Vectors                             5333.3        5520        5200
 PW_GRID|   G-Rays                                  66.7          69          65
 PW_GRID|   Real Space Points                     5333.3        5600        4800

 POISSON| Solver                                                         WAVELET
 POISSON| Wavelet| Scaling function                                           40
 POISSON| Periodicity                                                       NONE

 RS_GRID| Information for grid number                                          1
 RS_GRID|   Bounds   1           -202     202                Points:         405
 RS_GRID|   Bounds   2           -202     202                Points:         405
 RS_GRID|   Bounds   3           -202     202                Points:         405
 RS_GRID| Real space distribution over                                  4 groups
 RS_GRID| Real space distribution along direction                              1
 RS_GRID| Border size                                                         36
 RS_GRID| Real space distribution over                                  4 groups
 RS_GRID| Real space distribution along direction                              2
 RS_GRID| Border size                                                         36
 RS_GRID| Real space distribution over                                  6 groups
 RS_GRID| Real space distribution along direction                              3
 RS_GRID| Border size                                                         36
 RS_GRID|   Distribution                         Average         Max         Min
 RS_GRID|   Planes                                 173.2         174         173
 RS_GRID|   Distribution                         Average         Max         Min
 RS_GRID|   Planes                                 173.2         174         173
 RS_GRID|   Distribution                         Average         Max         Min
 RS_GRID|   Planes                                 139.5         140         139

 RS_GRID| Information for grid number                                          2
 RS_GRID|   Bounds   1           -120     119                Points:         240
 RS_GRID|   Bounds   2           -120     119                Points:         240
 RS_GRID|   Bounds   3           -120     119                Points:         240
 RS_GRID| Real space distribution over                                  4 groups
 RS_GRID| Real space distribution along direction                              1
 RS_GRID| Border size                                                         35
 RS_GRID| Real space distribution over                                  4 groups
 RS_GRID| Real space distribution along direction                              2
 RS_GRID| Border size                                                         35
 RS_GRID| Real space distribution over                                  6 groups
 RS_GRID| Real space distribution along direction                              3
 RS_GRID| Border size                                                         35
 RS_GRID|   Distribution                         Average         Max         Min
 RS_GRID|   Planes                                 130.0         130         130
 RS_GRID|   Distribution                         Average         Max         Min
 RS_GRID|   Planes                                 130.0         130         130
 RS_GRID|   Distribution                         Average         Max         Min
 RS_GRID|   Planes                                 110.0         110         110

 RS_GRID| Information for grid number                                          3
 RS_GRID|   Bounds   1            -67      67                Points:         135
 RS_GRID|   Bounds   2            -67      67                Points:         135
 RS_GRID|   Bounds   3            -67      67                Points:         135
 RS_GRID| Real space fully replicated
 RS_GRID| Group size                                                           1

 RS_GRID| Information for grid number                                          4
 RS_GRID|   Bounds   1            -40      39                Points:          80
 RS_GRID|   Bounds   2            -40      39                Points:          80
 RS_GRID|   Bounds   3            -40      39                Points:          80
 RS_GRID| Real space fully replicated
 RS_GRID| Group size                                                           1

  HFX_INFO| Replica ID:                                                        1
  HFX_INFO| FRACTION:                                               0.2500000000
  HFX_INFO| Interaction Potential:                                       COULOMB
  HFX_INFO| EPS_SCHWARZ:                                                 1.0E-10
  HFX_INFO| EPS_SCHWARZ_FORCES                                           1.0E-08
  HFX_INFO| EPS_STORAGE_SCALING:                                         1.0E+00
  HFX_INFO| NBINS:                                                            64
  HFX_INFO| BLOCK_SIZE:                                                        1
  HFX_INFO| Number of periodic shells considered:                           NONE
  HFX_INFO| Number of periodic cells considered:                            NONE


 OVERLAP MATRIX CONDITION NUMBER
 1-Norm Condition Number (Estimate)
   CN : |A|*|A^-1|:  8.818E+000 *  8.964E+003   = 7.905E+004  Log(1-CN):  4.8979
 1-Norm and 2-Norm Condition Numbers using Diagonalization
   CN : |A|*|A^-1|:  8.818E+000 *  8.964E+003   = 7.905E+004  Log(1-CN):  4.8979
   CN : max/min ev:  6.377E+000 /  1.824E-004   = 3.497E+004  Log(2-CN):  4.5437

[...]
 tddfpt_compute_Aop_evects            8  7.0    0.000    0.000  266.183  266.183
 scf_env_do_scf                       1  3.0    0.000    0.000  249.287  249.287
 fhxc_kernel                          8  8.0    0.008    0.010  234.584  234.584
 scf_env_do_scf_inner_loop          181  4.0    0.004    0.010  231.595  231.595
 qs_ks_update_qs_env                182  5.0    0.001    0.001  199.484  199.515
 rebuild_ks_matrix                  181  6.0    0.001    0.001  199.464  199.497
 qs_ks_build_kohn_sham_matrix       181  7.0    0.025    0.029  199.464  199.496
 fft_wrap_pw1pw2                   5755 10.8    0.115    0.145  176.115  180.193
 fft_wrap_pw1pw2_250               4063 12.0    7.024    8.493  169.635  174.016
 pw_poisson_solve                   341  8.9    4.268    5.638  162.348  162.715
 fft3d_ps                          5755 12.8   62.650   79.213  145.778  150.947
 ps_wavelet_solve                   341  9.9   76.431   87.943   98.204   99.633
 tddfpt_apply_coulomb               160  9.0    0.003    0.005   93.998   94.518
 qs_rho_update_rho_low              343  6.9    0.004    0.004   85.417   85.427
 calculate_rho_elec                 343  7.9    1.668    1.981   84.961   84.969
 mp_alltoall_z22v                  5755 14.8   70.661   76.304   70.661   76.304
 xc_pw_derive                      1689 11.0    0.019    0.026   75.167   75.542
 mp_alltoall_d54                    341 10.9   12.549   75.323   12.549   75.323
 integrate_four_center              501  9.6   10.824   21.990   61.194   61.375
 density_rs2pw                      343  8.9    0.021    0.026   57.400   60.207
 tddfpt_apply_xc_analytic           160  9.0    0.227    0.309   53.528   54.267
 mp_sync                           2743 11.5   41.707   52.931   41.707   52.931
 x_to_yz                           2594 13.8    7.513    8.684   42.848   44.575
 yz_to_x                           2597 13.8    4.317    5.101   39.599   43.636
 xc_pw_divergence                   221 10.7    0.010    0.012   40.361   40.771
 qs_vxc_create                      181  8.0    0.002    0.002   39.246   39.247
 integrate_v_rspace                 221  9.0    0.005    0.006   38.871   39.205
 transfer_rs2pw                    1715 10.0    0.050    0.075   34.994   37.296
 prepare_gapw_den                   342  8.5    0.004    0.006   36.542   36.971
 integrate_four_center_main         501 10.6    0.196   12.489    0.783   36.424
 integrate_four_center_bin        39860 11.6    0.587   36.016    0.587   36.016
 hfx_ks_matrix                      181  8.0    0.006    0.007   32.057   32.200
 xc_calc_2nd_deriv_analytical       480 10.0    1.911    2.008   31.806   31.890
 potential_pw2rs                    221 10.0    0.076    0.084   30.960   31.324
 mp_alltoall_d11v                 15760 11.9   23.164   31.234   23.164   31.234
 tddfpt_apply_hfx                     8  8.0    0.003    0.004   30.929   30.929
 transfer_pw2rs                    1226 10.7    0.019    0.023   29.197   29.980
 grid_collocate_task_list           343  8.9   24.498   29.519   24.498   29.519
 tddft_hfx_matrix                   320  9.0    0.007    0.010   29.153   29.241
 put_rho0_on_grid                   342  9.5    1.680    2.013   28.449   28.879
 xc_rho_set_and_dset_create         182 10.0    0.445    0.551   25.391   27.329
 mp_waitany                       54390 12.3   23.319   25.883   23.319   25.883
 transfer_rs2pw_250                 686 11.2    8.907    9.508   21.469   23.711
 xc_vxc_pw_create                    61  9.0    0.401    0.478   20.815   20.815
 transfer_pw2rs_250                 563 11.3    6.685    7.717   18.646   19.500
 xc_exc_calc                        120  9.0    0.582    0.691   18.429   18.430
 init_scf_loop                        1  4.0    0.000    0.000   17.690   17.690
 integrate_vhg0_rspace              341  8.9    0.334    0.382   16.385   16.886
 mp_alltoall_d45                    342 10.9    8.445   14.894    8.445   14.894
 mp_waitall_1                    481774 13.5    8.100   10.628    8.100   10.628
 sum_up_and_integrate                61  8.0    0.001    0.001   10.458   10.494
 pw_scatter_p                      2815 12.9    9.788   10.010    9.788   10.010
 mp_sum_d                          6087  9.6    7.784    9.417    7.784    9.417
 pw_gather_p                       2940 12.7    8.192    9.218    8.192    9.218
 pw_derive                         2712 11.6    7.975    8.508    7.975    8.508
 cp2k_distribution_to_z_slices      341  9.9    3.274    3.557    7.580    8.075
 rs_gather_matrices                 221 10.0    0.020    0.025    7.654    7.965
 transfer_rs2pw_30                  343 10.9    3.241    3.407    7.563    7.878
 calculate_rho_atom                 342  9.5    1.805    7.819    1.805    7.820
 grid_integrate_task_list           221 10.0    0.251    7.762    0.251    7.762
 transfer_pw2rs_30                  221 12.0    3.762    4.368    6.263    6.519
 mp_sum_dv                        20838 10.1    6.279    6.462    6.279    6.462
 gaVxcgb_GC                         221  9.7    0.134    6.459    0.134    6.459
 calculate_xc_2nd_deriv_atom        160  9.0    0.048    1.495    0.162    6.373
 fft_wrap_pw1pw2_90                 564 11.3    0.192    0.274    4.923    6.187
 rs_grid_zero                      1468 11.4    5.588    5.988    5.588    5.988
 mp_sendrecv_dv                   65170 11.9    5.284    5.650    5.284    5.650
 pw_copy                           4200 10.8    5.219    5.616    5.219    5.616
 dbcsr_multiply_generic            3512 10.0    0.141    0.151    5.406    5.485
 pw_poisson_set                     342  9.9    0.012    0.014    5.256    5.303
 transfer_rs2pw_90                  343 10.9    1.220    1.381    4.355    4.877
 qs_scf_new_mos                     181  5.0    0.001    0.001    4.497    4.507
 qs_scf_loop_do_ot                  181  6.0    0.001    0.001    4.496    4.506
 ot_scf_mini                        181  7.0    0.002    0.003    4.185    4.195
 cp_dbcsr_sm_fm_multiply           1009  8.6    0.019    0.021    4.034    4.163
 mp_isendrecv_dv                 137180 12.1    1.670    4.082    1.670    4.082
 pw_copy_to_array                  2940 12.7    3.039    3.855    3.039    3.855
 transfer_pw2rs_90                  221 12.0    0.840    1.016    3.156    3.737
 integrate_four_center_getP         501 10.6    0.081    0.091    3.177    3.338
 pw_integral_ab_c1d_c1d_gs          341  9.9    2.495    2.519    2.894    3.281
 mp_sum_dm                         2092  9.2    2.305    3.216    2.305    3.216
 pw_axpy                           2978 10.3    2.785    3.050    2.785    3.050
 multiply_cannon                   3512 11.0    0.319    0.330    2.855    2.936
 integrate_four_center_dist_KS      501 10.6    0.088    0.103    2.820    2.837
 calculate_vxc_atom                 181  8.0    0.036    0.805    2.680    2.680
 dbcsr_complete_redistribute       3549 10.7    0.124    0.208    2.552    2.670
 pw_copy_from_array                2815 12.9    1.941    2.470    1.941    2.470
 pw_zero                           3052 10.5    2.127    2.307    2.127    2.307
 calc_screening_functions             1 10.0    1.839    1.954    2.132    2.246
 xc_functional_eval                 864 11.0    0.002    0.005    0.686    2.181
 pbe_lda_eval                       864 12.0    0.684    2.180    0.684    2.180
 multiply_cannon_loop              3512 12.0    0.528    0.549    2.081    2.165
 mp_irecv_dm3                     10878 12.3    0.986    1.999    0.986    1.999
 mp_isend_dm3                     10878 12.3    0.957    1.955    0.957    1.955
 qs_ot_get_p                        182  8.0    0.001    0.001    1.931    1.935
 copy_dbcsr_to_fm                  1228  9.7    0.015    0.016    1.873    1.901
 mp_isend_dv                     194543 13.6    1.273    1.892    1.273    1.892
 copy_fm_to_dbcsr                  2319  9.7    0.010    0.011    1.560    1.677
 make_m2s                          7024 11.0    0.111    0.121    1.535    1.645
 transfer_rs2pw_10                  343 10.9    0.595    0.661    1.558    1.620
 cp_dbcsr_sm_fm_multiply_core      1009  9.6    0.002    0.003    1.419    1.505
 qs_ot_p2m_diag                     181  9.0    0.004    0.005    1.437    1.443
 ot_mini                            181  8.0    0.001    0.001    1.379    1.388
 mp_max_i                           794  5.7    0.998    1.325    0.998    1.325
 qs_ot_get_derivative                61  9.0    0.000    0.001    1.263    1.265
 transfer_pw2rs_10                  221 12.0    0.406    0.455    1.112    1.257
 Vh_1c_gg_integrals                 341  8.9    0.038    0.885    1.003    1.203
 fft_wrap_pw1pw2_30                 564 11.3    0.036    0.042    1.041    1.187
 make_images                       7024 12.0    0.276    0.294    1.140    1.152
 mp_alltoall_i11v                 12056 11.7    1.016    1.017    1.016    1.017
 scale_and_distribute               682 10.9    0.859    0.975    0.859    0.975
 qs_ot_get_derivative_diag           60 10.0    0.001    0.001    0.968    0.970
 tddfpt_orthonormalize_psi1_psi       9  6.9    0.019    0.020    0.944    0.944
 offload_free_buffer                349  9.8    0.480    0.942    0.480    0.942
 cp_fm_syevd                        231 10.3    0.001    0.002    0.867    0.869
 cp_dbcsr_syevd                     181 10.0    0.010    0.010    0.864    0.865
 pw_poisson_rebuild                 341  9.9    0.000    0.001    0.758    0.771
 ps_wavelet_create                    1 10.0    0.000    0.000    0.758    0.771
 RS_z_slice_distribution              1 11.0    0.678    0.713    0.758    0.771
 dbcsr_desymmetrize_deep           1229 10.7    0.022    0.025    0.736    0.759
 cp_dbcsr_plus_fm_fm_t              161  9.0    0.002    0.003    0.714    0.720
 tddfpt_print_nto_analysis            1  6.0    0.002    0.003    0.696    0.696
 cp_fm_redistribute_end             231 11.3    0.394    0.668    0.401    0.676
 tddfpt_apply_energy_diff             8  8.0    0.001    0.001    0.669    0.670
 prepare_dr1dr                      480 11.0    0.569    0.666    0.569    0.666
 mp_sum_l                         15481 10.7    0.597    0.658    0.597    0.658
 create_qs_kind_set                   1  2.0    0.000    0.000    0.638    0.639
 read_qs_kind                         1  3.0    0.349    0.359    0.638    0.639
 mp_alltoall_i22                   4838 11.7    0.469    0.611    0.469    0.611
 update_ks_atom                     341  8.5    0.023    0.110    0.357    0.596
 qs_ot_get_orbitals                 181  8.0    0.001    0.001    0.567    0.571
 powell_optimize                 215264 11.0    0.536    0.552    0.536    0.552
 cp_fm_syevd_base                   231 11.3    0.270    0.545    0.270    0.545
 tddfpt_compute_residual_vects        7  7.0    0.001    0.001    0.536    0.537
 mp_bcast_dm                       1548  9.8    0.338    0.517    0.338    0.517
 multiply_cannon_metrocomm4       77264 13.0    0.229    0.238    0.442    0.470
 calculate_rho_atom_coeff           343  7.9    0.036    0.148    0.452    0.459
 multiply_cannon_metrocomm3       84288 13.0    0.133    0.138    0.359    0.450
 make_images_sizes                 7024 13.0    0.007    0.008    0.427    0.445
 mp_alltoall_i44                   7024 14.0    0.419    0.438    0.419    0.438
 multiply_cannon_metrocomm2       73752 13.0    0.220    0.229    0.404    0.429
 fft_wrap_pw1pw2_10                 564 11.3    0.009    0.010    0.401    0.425
 cp_fm_geeig                         20  7.0    0.001    0.001    0.398    0.399
 hybrid_alltoall_any               8253 13.6    0.063    0.095    0.369    0.394
 mp_irecv_dv                     194581 13.6    0.195    0.388    0.195    0.388
 mp_rank_compare                   5755 13.8    0.345    0.370    0.345    0.370
 calc_pair_dist_radii                 1 10.0    0.116    0.118    0.359    0.367
 tddfpt_construct_ground_state_       1  6.0    0.000    0.000    0.355    0.356
 init_scf_run                         1  3.0    0.000    0.000    0.332    0.332
 scf_env_initial_rho_setup            1  4.0    0.000    0.000    0.332    0.332
 parallel_gemm_fm                  1348  8.4    0.002    0.002    0.315    0.328
 parallel_gemm_fm_gemm             1348  9.4    0.002    0.002    0.313    0.327
 cp_fm_gemm                        1348 10.4    0.311    0.325    0.311    0.325
 calculate_dm_sparse                182  7.0    0.001    0.001    0.313    0.316
 qs_init_subsys                       1  2.0    0.009    0.010    0.305    0.306
 parser_read_line                 73881  4.0    0.026    0.030    0.289    0.294
 dbcsr_finalize                    9726 11.4    0.046    0.060    0.220    0.292
 dbcsr_create_new                 72995 12.3    0.212    0.219    0.283    0.291
 multiply_cannon_metrocomm1       84288 13.0    0.093    0.096    0.228    0.290
 dbcsr_make_images_dense           4512 11.9    0.067    0.071    0.201    0.285
 qs_env_setup                         1  3.0    0.000    0.000    0.279    0.283
 qs_env_rebuild_pw_env                2  3.5    0.000    0.000    0.278    0.283
 pw_env_rebuild                       1  5.0    0.001    0.001    0.278    0.282
 calculate_rho0_atom                342  9.5    0.259    0.271    0.259    0.271
 pw_grid_setup                        4  6.0    0.000    0.000    0.264    0.269
 pw_grid_setup_internal               4  7.0    0.006    0.010    0.264    0.268
 parser_read_line_low                79  5.0    0.025    0.121    0.263    0.268
 mp_allgather_i34                  3512 12.0    0.246    0.266    0.246    0.266
 cp_fm_trace_a1b1t1_aa            13090  8.0    0.060    0.065    0.260    0.263
 mp_alltoall_z11v                   564 14.3    0.228    0.253    0.228    0.253
 pw_scale                           564  9.5    0.214    0.249    0.214    0.249
 broadcast_input_information         79  6.0    0.060    0.066    0.238    0.245
 make_images_data                  7024 13.0    0.067    0.088    0.145    0.232
 create_kernel_env                    1  6.0    0.000    0.000    0.195    0.213
 xc_prep_2nd_deriv                    1  7.0    0.000    0.000    0.195    0.213
 mp_cart_sub                       2459 11.7    0.209    0.211    0.209    0.211
 rs_grid_create                     347  9.9    0.002    0.002    0.038    0.205
 offload_create_buffer              349 10.9    0.037    0.202    0.037    0.202
 dbcsr_make_dense_low             13032 12.8    0.064    0.066    0.097    0.202
 cp_fm_redistribute_start           231 11.3    0.154    0.158    0.194    0.201
 dbcsr_special_finalize           17560 13.0    0.048    0.050    0.147    0.190
 arnoldi_extremal                   182  9.0    0.003    0.003    0.181    0.185
 mp_cart_create                    1574 11.2    0.174    0.183    0.176    0.185
 arnoldi_normal_ev                  183 10.0    0.003    0.004    0.180    0.184
 pw_grid_sort                         4  8.0    0.107    0.127    0.156    0.176
 dbcsr_merge_all                   8396 12.3    0.099    0.123    0.124    0.168
 rs_scatter_matrices                343  8.9    0.002    0.009    0.158    0.165
 integrate_four_center_load         501 10.6    0.001    0.002    0.125    0.165
 hfx_load_balance                     1 11.0    0.000    0.000    0.124    0.163
 qs_energies_init_hamiltonians        1  3.0    0.000    0.000    0.162    0.162
 multiply_cannon_multrec          84288 13.0    0.106    0.146    0.121    0.162
 hfx_load_balance_range               1 12.0    0.000    0.000    0.117    0.157
 build_core_hamiltonian_matrix        1  4.0    0.000    0.000    0.155    0.155
 overlap_condnum                      1  5.0    0.000    0.000    0.153    0.153
 xc_2nd_deriv_of_r                  320 10.0    0.001    0.027    0.003    0.147
 xz_to_yz                           343 12.9    0.012    0.014    0.135    0.144
 yz_to_xz                           221 14.0    0.012    0.014    0.119    0.139
 mp_isend_iv                     165060 14.0    0.126    0.138    0.126    0.138
 dbcsr_iterator_start             60108 12.2    0.063    0.108    0.078    0.131
 dbcsr_destroy                    70879 11.5    0.087    0.090    0.119    0.126
 build_subspace                     183 11.0    0.006    0.007    0.118    0.120
 arnoldi_conjugate_gradient           6  6.0    0.003    0.004    0.118    0.118
 mp_bcast_i_src                     316  7.0    0.101    0.116    0.101    0.116
 dbcsr_sym_matrix_vector_mult       741  8.2    0.012    0.013    0.074    0.115
 ot_new_cg_direction                 61  9.0    0.001    0.001    0.108    0.108
 vxc_of_r_new                       362  9.0    0.000    0.008    0.002    0.107
 dbcsr_data_new                  202625 13.0    0.084    0.105    0.084    0.105
 make_dense_data                  13032 13.8    0.005    0.046    0.005    0.105
 dbcsr_data_release              333093 13.1    0.087    0.103    0.087    0.103
 apply_preconditioner_dbcsr          62 10.0    0.000    0.000    0.097    0.100
 apply_single                        62 11.0    0.000    0.000    0.096    0.100
 dbcsr_matrix_vector_mult          1229 12.0    0.011    0.012    0.060    0.098
 tddfpt_compute_ritz_vects            8  7.0    0.006    0.006    0.091    0.091
 dbcsr_work_create                27245 12.5    0.051    0.055    0.073    0.087
 dbcsr_iterator_stop              60108 12.2    0.046    0.072    0.056    0.085
 setup_buffer_matrices             7024 12.0    0.026    0.028    0.080    0.084
 mp_bcast_am_src                     79  7.0    0.070    0.078    0.076    0.084
 dbcsr_merge_single_wm             8800 13.8    0.042    0.050    0.048    0.082
 mp_irecv_iv                     165060 14.0    0.072    0.082    0.072    0.082
 copy_fm_to_dbcsr_bc               2319 10.7    0.024    0.027    0.070    0.078
 dbcsr_add_d                       1214  8.5    0.002    0.002    0.009    0.075
 scf_post_calculation_gpw             1  3.0    0.000    0.000    0.074    0.074
 write_available_results              1  4.0    0.000    0.000    0.074    0.074
 write_mo_free_results                1  5.0    0.006    0.008    0.074    0.074
 dbcsr_add_anytype                 1214  9.5    0.002    0.012    0.007    0.073
 dbcsr_work_destroy_all           27245 13.5    0.046    0.052    0.062    0.071
 cp_fm_cholesky_decompose            23  7.9    0.067    0.067    0.067    0.067
 dbcsr_new_transposed              1470 10.8    0.008    0.009    0.064    0.066
 mp_sum_b                          4513 10.9    0.062    0.064    0.062    0.064
 dbcsr_make_dense                  1752 11.1    0.007    0.008    0.037    0.063
 dbcsr_col_vec_to_rep_row          1970 11.6    0.014    0.016    0.030    0.063
 dbcsr_copy                        7784  9.9    0.025    0.027    0.056    0.062
 tddfpt_orthogonalize_psi1_psi0       9  6.9    0.000    0.000    0.054    0.061
 prepare_preconditioner               1  5.0    0.000    0.000    0.061    0.061
 make_preconditioner                  1  6.0    0.000    0.000    0.061    0.061
 cp_fm_triangular_invert             20  8.0    0.057    0.058    0.057    0.058
 make_full_single_inverse             1  7.0    0.000    0.000    0.056    0.057
 -------------------------------------------------------------------------------

 The number of warnings for this run is : 2
 
 -------------------------------------------------------------------------------
  **** **** ******  **  PROGRAM ENDED AT                 2025-04-28 09:27:37.082
 ***** ** ***  *** **   PROGRAM RAN ON                              i01r07c03s09
 **    ****   ******    PROGRAM RAN BY                                   di38fab
 ***** **    ** ** **   PROGRAM PROCESS ID                               1680019
  **** **  *******  **  PROGRAM STOPPED IN /hppfs/scratch/04/di38fab/07_MOL_non_
                                           aug/05_MOL_non_aug/05_MOL/W4-11+ALK/n
                                           2/cc-pVQZ/TDDFT
