SIRIUS 7.5.2, git hash: https://api.github.com/repos/electronic-structure/SIRIUS/git/ref/tags/v7.5.2
 DBCSR| CPU Multiplication driver                                           XSMM (U)
 DBCSR| Multrec recursion limit                                              512 (U)
 DBCSR| Multiplication stack size                                           1000 (D)
 DBCSR| Maximum elements for images                                    UNLIMITED (U)
 DBCSR| Multiplicative factor virtual images                                   1 (U)
 DBCSR| Use multiplication densification                                       T (D)
 DBCSR| Multiplication size stacks                                             3 (U)
 DBCSR| Use memory pool for CPU allocation                                     F (U)
 DBCSR| Number of 3D layers                                               SINGLE (U)
 DBCSR| Use MPI memory allocation                                              F (U)
 DBCSR| Use RMA algorithm                                                      F (U)
 DBCSR| Use Communication thread                                               T (U)
 DBCSR| Communication thread load                                             75 (D)
 DBCSR| MPI: My process id                                                     0
 DBCSR| MPI: Number of processes                                              64
 DBCSR| OMP: Current number of threads                                         4
 DBCSR| OMP: Max number of threads                                             4
 DBCSR| Split modifier for TAS multiplication algorithm                  1.0E+00 (U)


  **** **** ******  **  PROGRAM STARTED AT               2025-03-17 00:27:49.901
 ***** ** ***  *** **   PROGRAM STARTED ON                 n2cn0974.ab2021.local
 **    ****   ******    PROGRAM STARTED BY                              metdyn02
 ***** **    ** ** **   PROGRAM PROCESS ID                               1872058
  **** **  *******  **  PROGRAM STARTED IN /scratch/hpc-prf-metdyn/metdyn02_Remi
                                           /10_MOL/05_MOL/W4-11+ALK/propyne/TZVP
                                           /GW+BSE/RILIM

 CP2K| version string:                 CP2K version 2025.1 (Development Version)
 CP2K| source code revision number:                                  git:f0c7327
 CP2K| cp2kflags: omp libint fftw3 libxc libgrpp elpa parallel scalapack mpi_f08
 CP2K|             cosma xsmm plumed2 spglib sirius libvori libbqb libvdwxc hdf5
 CP2K| is freely available from                            https://www.cp2k.org/
 CP2K| Program compiled at                          Wed Mar 12 18:25:30 CET 2025
 CP2K| Program compiled on                                              n2login1
 CP2K| Program compiled for                                                local
 CP2K| Data directory path    /opt/software/pc2/EB-SW/software/CP2K/2024.1-foss-
 CP2K| Input file name                                                    GW.inp

 GLOBAL| Force Environment number                                              1
 GLOBAL| Basis set file name            /scratch/hpc-prf-metdyn/metdyn02_Remi/BA
 GLOBAL| Potential file name            /pc2/groups/hpc-prf-metdyn/metdyn02_Remi
 GLOBAL| MM Potential file name                                     MM_POTENTIAL
 GLOBAL| Coordinate file name                                      __STD_INPUT__
 GLOBAL| Method name                                                        CP2K
 GLOBAL| Project name                                                       MoS2
 GLOBAL| Run type                                                         ENERGY
 GLOBAL| FFT library                                                       FFTW3
 GLOBAL| Diagonalization library                                            ELPA
 GLOBAL| DGEMM library                                                      BLAS
 GLOBAL| Minimum number of eigenvectors for ELPA usage                        16
 GLOBAL| Orthonormality check for eigenvectors                          DISABLED
 GLOBAL| Matrix multiplication library                                     COSMA
 GLOBAL| All-to-all communication in single precision                          F
 GLOBAL| FFTs using library dependent lengths                                  F
 GLOBAL| Grid backend                                                       AUTO
 GLOBAL| Global print level                                               MEDIUM
 GLOBAL| MPI I/O enabled                                                       T
 GLOBAL| Total number of message passing processes                            64
 GLOBAL| Number of threads for this process                                    4
 GLOBAL| This output is from process                                           0
 GLOBAL| OpenMP stack size per thread (OMP_STACKSIZE)                    default
 GLOBAL| CPU model name                          AMD EPYC 7763 64-Core Processor
 GLOBAL| CPUID                                                              1002

 MEMORY| system memory details [Kb]
 MEMORY|                        rank 0           min           max       average
 MEMORY| MemTotal            263899264     263899264     263899264     263899264
 MEMORY| MemFree             242729688     238994556     242729688     240862122
 MEMORY| Buffers                217812        217812        219632        218722
 MEMORY| Cached                8173644       8173644      10743024       9458334
 MEMORY| Slab                  2044580       2044580       2805868       2425224
 MEMORY| SReclaimable           346436        346436        715248        530842
 MEMORY| MemLikelyFree       251467580     250672460     251467580     251070020


 *** Fundamental physical constants (SI units) ***

 *** Literature: B. J. Mohr and B. N. Taylor,
 ***             CODATA recommended values of the fundamental physical
 ***             constants: 2006, Web Version 5.1
 ***             http://physics.nist.gov/constants

 Speed of light in vacuum [m/s]                             2.99792458000000E+08
 Magnetic constant or permeability of vacuum [N/A**2]       1.25663706143592E-06
 Electric constant or permittivity of vacuum [F/m]          8.85418781762039E-12
 Planck constant (h) [J*s]                                  6.62606896000000E-34
 Planck constant (h-bar) [J*s]                              1.05457162825177E-34
 Elementary charge [C]                                      1.60217648700000E-19
 Electron mass [kg]                                         9.10938215000000E-31
 Electron g factor [ ]                                     -2.00231930436220E+00
 Proton mass [kg]                                           1.67262163700000E-27
 Fine-structure constant                                    7.29735253760000E-03
 Rydberg constant [1/m]                                     1.09737315685270E+07
 Avogadro constant [1/mol]                                  6.02214179000000E+23
 Boltzmann constant [J/K]                                   1.38065040000000E-23
 Atomic mass unit [kg]                                      1.66053878200000E-27
 Bohr radius [m]                                            5.29177208590000E-11

 *** Conversion factors ***

 [u] -> [a.u.]                                              1.82288848426455E+03
 [Angstrom] -> [Bohr] = [a.u.]                              1.88972613288564E+00
 [a.u.] = [Bohr] -> [Angstrom]                              5.29177208590000E-01
 [a.u.] -> [s]                                              2.41888432650478E-17
 [a.u.] -> [fs]                                             2.41888432650478E-02
 [a.u.] -> [J]                                              4.35974393937059E-18
 [a.u.] -> [N]                                              8.23872205491840E-08
 [a.u.] -> [K]                                              3.15774647902944E+05
 [a.u.] -> [kJ/mol]                                         2.62549961709828E+03
 [a.u.] -> [kcal/mol]                                       6.27509468713739E+02
 [a.u.] -> [Pa]                                             2.94210107994716E+13
 [a.u.] -> [bar]                                            2.94210107994716E+08
 [a.u.] -> [atm]                                            2.90362800883016E+08
 [a.u.] -> [eV]                                             2.72113838565563E+01
 [a.u.] -> [Hz]                                             6.57968392072181E+15
 [a.u.] -> [1/cm] (wave numbers)                            2.19474631370540E+05
 [a.u./Bohr**2] -> [1/cm]                                   5.14048714338585E+03
 

 CELL_TOP| Volume [angstrom^3]:                                     27000.000000
 CELL_TOP| Vector a [angstrom    30.000     0.000     0.000   |a| =    30.000000
 CELL_TOP| Vector b [angstrom     0.000    30.000     0.000   |b| =    30.000000
 CELL_TOP| Vector c [angstrom     0.000     0.000    30.000   |c| =    30.000000
 CELL_TOP| Angle (b,c), alpha [degree]:                                90.000000
 CELL_TOP| Angle (a,c), beta  [degree]:                                90.000000
 CELL_TOP| Angle (a,b), gamma [degree]:                                90.000000
 CELL_TOP| Numerically orthorhombic:                                         YES
 CELL_TOP| Periodicity                                                      NONE

 GENERATE|  Preliminary Number of Bonds generated:                             0
 GENERATE|  Achieved consistency in connectivity generation.

 CELL| Volume [angstrom^3]:                                         27000.000000
 CELL| Vector a [angstrom]:      30.000     0.000     0.000   |a| =    30.000000
 CELL| Vector b [angstrom]:       0.000    30.000     0.000   |b| =    30.000000
 CELL| Vector c [angstrom]:       0.000     0.000    30.000   |c| =    30.000000
 CELL| Angle (b,c), alpha [degree]:                                    90.000000
 CELL| Angle (a,c), beta  [degree]:                                    90.000000
 CELL| Angle (a,b), gamma [degree]:                                    90.000000
 CELL| Numerically orthorhombic:                                             YES
 CELL| Periodicity                                                          NONE

 CELL_REF| Volume [angstrom^3]:                                     27000.000000
 CELL_REF| Vector a [angstrom    30.000     0.000     0.000   |a| =    30.000000
 CELL_REF| Vector b [angstrom     0.000    30.000     0.000   |b| =    30.000000
 CELL_REF| Vector c [angstrom     0.000     0.000    30.000   |c| =    30.000000
 CELL_REF| Angle (b,c), alpha [degree]:                                90.000000
 CELL_REF| Angle (a,c), beta  [degree]:                                90.000000
 CELL_REF| Angle (a,b), gamma [degree]:                                90.000000
 CELL_REF| Numerically orthorhombic:                                         YES
 CELL_REF| Periodicity                                                      NONE

 *******************************************************************************
 *******************************************************************************
 **                                                                           **
 **     #####                         ##              ##                      **
 **    ##   ##            ##          ##              ##                      **
 **   ##     ##                       ##            ######                    **
 **   ##     ##  ##   ##  ##   #####  ##  ##   ####   ##    #####    #####    **
 **   ##     ##  ##   ##  ##  ##      ## ##   ##      ##   ##   ##  ##   ##   **
 **   ##  ## ##  ##   ##  ##  ##      ####     ###    ##   ######   ######    **
 **    ##  ###   ##   ##  ##  ##      ## ##      ##   ##   ##       ##        **
 **     #######   #####   ##   #####  ##  ##  ####    ##    #####   ##        **
 **           ##                                                    ##        **
 **                                                                           **
 **                                                ... make the atoms dance   **
 **                                                                           **
 **            Copyright (C) by CP2K developers group (2000-2025)             **
 **                      J. Chem. Phys. 152, 194103 (2020)                    **
 **                                                                           **
 *******************************************************************************

 DFT| Spin restricted Kohn-Sham (RKS) calculation                            RKS
 DFT| Multiplicity                                                             1
 DFT| Number of spin states                                                    1
 DFT| Charge                                                                   0
 DFT| Self-interaction correction (SIC)                                       NO
 DFT| Cutoffs: density                                              1.000000E-10
 DFT|          gradient                                             1.000000E-10
 DFT|          tau                                                  1.000000E-10
 DFT|          cutoff_smoothing_range                               0.000000E+00
 DFT| XC density smoothing                                                  NONE
 DFT| XC derivatives                                                          PW

 FUNCTIONAL| PBE:
 FUNCTIONAL| J.P.Perdew, K.Burke, M.Ernzerhof, Phys. Rev. Letter, vol. 77, n 18,
 FUNCTIONAL|  pp. 3865-3868, (1996)sx=0.750sc=1.000{spin unpolarized}           


 QS| Method:                                                                GAPW
 QS| Density plane wave grid type                        NON-SPHERICAL FULLSPACE
 QS| Number of grid levels:                                                    4
 QS| Density cutoff [a.u.]:                                                250.0
 QS| Multi grid cutoff [a.u.]: 1) grid level                               250.0
 QS|                           2) grid level                                83.3
 QS|                           3) grid level                                27.8
 QS|                           4) grid level                                 9.3
 QS| Grid level progression factor:                                          3.0
 QS| Relative density cutoff [a.u.]:                                        50.0
 QS| Interaction thresholds: eps_pgf_orb:                                1.0E-12
 QS|                         eps_filter_matrix:                          0.0E+00
 QS|                         eps_core_charge:                            1.0E-14
 QS|                         eps_rho_gspace:                             1.0E-12
 QS|                         eps_rho_rspace:                             1.0E-12
 QS|                         eps_gvg_rspace:                             1.0E-06
 QS|                         eps_ppl:                                    1.0E-02
 QS|                         eps_ppnl:                                   1.0E-08
 QS| GAPW|      One center basis from orbital basis primitives
 QS| GAPW|                   eps_fit:                                    1.0E-04
 QS| GAPW|                   eps_iso:                                    1.0E-12
 QS| GAPW|                   eps_svd:                                    1.0E-08
 QS| GAPW|                   eps_cpc:                                    1.0E-12
 QS| GAPW|   atom-r-grid: quadrature:                                     GC_LOG
 QS| GAPW|      atom-s-grid:  max l :                                          8
 QS| GAPW|      max_l_rho0 :                                                   2


 ATOMIC KIND INFORMATION

  1. Atomic kind: H                                     Number of atoms:       4

     Orbital Basis Set                                        aug-TZVP-MOLOPT-ae

       Number of orbital shell sets:                                           1
       Number of orbital shells:                                               9
       Number of primitive Cartesian functions:                                6
       Number of Cartesian basis functions:                                   25
       Number of spherical basis functions:                                   23
       Norm type:                                                              2

       Normalised Cartesian orbitals:

                        Set   Shell   Orbital            Exponent    Coefficient

                          1       1    1s                0.030000       0.000000
                                                         0.091371      -0.049397
                                                         0.293823      -0.051765
                                                         1.065127       0.831136
                                                         4.947701      -0.270539
                                                        34.177738      -6.423540

                          1       2    2s                0.030000       0.000000
                                                         0.091371      -0.041080
                                                         0.293823       0.227881
                                                         1.065127       0.154529
                                                         4.947701       0.528758
                                                        34.177738       3.211471

                          1       3    3s                0.030000       0.000000
                                                         0.091371       0.076395
                                                         0.293823       0.077306
                                                         1.065127       0.164523
                                                         4.947701      -0.040048
                                                        34.177738      -1.131577

                          1       4    4s                0.030000       0.043550
                                                         0.091371      -0.026138
                                                         0.293823      -0.246542
                                                         1.065127      -0.077212
                                                         4.947701       0.000000
                                                        34.177738       0.000000

                          1       5    2px               0.030000       0.000000
                                                         0.091371       0.008886
                                                         0.293823      -0.007684
                                                         1.065127       1.416453
                                                         4.947701       1.341091
                                                        34.177738     -11.084238
                          1       5    2py               0.030000       0.000000
                                                         0.091371       0.008886
                                                         0.293823      -0.007684
                                                         1.065127       1.416453
                                                         4.947701       1.341091
                                                        34.177738     -11.084238
                          1       5    2pz               0.030000       0.000000
                                                         0.091371       0.008886
                                                         0.293823      -0.007684
                                                         1.065127       1.416453
                                                         4.947701       1.341091
                                                        34.177738     -11.084238

                          1       6    3px               0.030000       0.000000
                                                         0.091371      -0.013062
                                                         0.293823       0.330130
                                                         1.065127       0.106963
                                                         4.947701      -0.549928
                                                        34.177738       9.643751
                          1       6    3py               0.030000       0.000000
                                                         0.091371      -0.013062
                                                         0.293823       0.330130
                                                         1.065127       0.106963
                                                         4.947701      -0.549928
                                                        34.177738       9.643751
                          1       6    3pz               0.030000       0.000000
                                                         0.091371      -0.013062
                                                         0.293823       0.330130
                                                         1.065127       0.106963
                                                         4.947701      -0.549928
                                                        34.177738       9.643751

                          1       7    4px               0.030000       0.014060
                                                         0.091371       0.022273
                                                         0.293823      -0.026384
                                                         1.065127       0.024249
                                                         4.947701       0.000000
                                                        34.177738       0.000000
                          1       7    4py               0.030000       0.014060
                                                         0.091371       0.022273
                                                         0.293823      -0.026384
                                                         1.065127       0.024249
                                                         4.947701       0.000000
                                                        34.177738       0.000000
                          1       7    4pz               0.030000       0.014060
                                                         0.091371       0.022273
                                                         0.293823      -0.026384
                                                         1.065127       0.024249
                                                         4.947701       0.000000
                                                        34.177738       0.000000

                          1       8    3dx2              0.030000       0.000000
                                                         0.091371      -0.004737
                                                         0.293823       0.052231
                                                         1.065127       1.617163
                                                         4.947701      -1.124420
                                                        34.177738       9.702470
                          1       8    3dxy              0.030000       0.000000
                                                         0.091371      -0.008204
                                                         0.293823       0.090468
                                                         1.065127       2.801009
                                                         4.947701      -1.947552
                                                        34.177738      16.805171
                          1       8    3dxz              0.030000       0.000000
                                                         0.091371      -0.008204
                                                         0.293823       0.090468
                                                         1.065127       2.801009
                                                         4.947701      -1.947552
                                                        34.177738      16.805171
                          1       8    3dy2              0.030000       0.000000
                                                         0.091371      -0.004737
                                                         0.293823       0.052231
                                                         1.065127       1.617163
                                                         4.947701      -1.124420
                                                        34.177738       9.702470
                          1       8    3dyz              0.030000       0.000000
                                                         0.091371      -0.008204
                                                         0.293823       0.090468
                                                         1.065127       2.801009
                                                         4.947701      -1.947552
                                                        34.177738      16.805171
                          1       8    3dz2              0.030000       0.000000
                                                         0.091371      -0.004737
                                                         0.293823       0.052231
                                                         1.065127       1.617163
                                                         4.947701      -1.124420
                                                        34.177738       9.702470

                          1       9    4dx2              0.030000       0.002444
                                                         0.091371       0.004703
                                                         0.293823       0.069647
                                                         1.065127       0.196246
                                                         4.947701       0.000000
                                                        34.177738       0.000000
                          1       9    4dxy              0.030000       0.004233
                                                         0.091371       0.008146
                                                         0.293823       0.120632
                                                         1.065127       0.339908
                                                         4.947701       0.000000
                                                        34.177738       0.000000
                          1       9    4dxz              0.030000       0.004233
                                                         0.091371       0.008146
                                                         0.293823       0.120632
                                                         1.065127       0.339908
                                                         4.947701       0.000000
                                                        34.177738       0.000000
                          1       9    4dy2              0.030000       0.002444
                                                         0.091371       0.004703
                                                         0.293823       0.069647
                                                         1.065127       0.196246
                                                         4.947701       0.000000
                                                        34.177738       0.000000
                          1       9    4dyz              0.030000       0.004233
                                                         0.091371       0.008146
                                                         0.293823       0.120632
                                                         1.065127       0.339908
                                                         4.947701       0.000000
                                                        34.177738       0.000000
                          1       9    4dz2              0.030000       0.002444
                                                         0.091371       0.004703
                                                         0.293823       0.069647
                                                         1.065127       0.196246
                                                         4.947701       0.000000
                                                        34.177738       0.000000

     RI Auxiliary Basis Set             RI_aug-TZVP-MOLOPT-ae_N_RI_031_s_p_d_f_g

       Number of orbital shell sets:                                          13
       Number of orbital shells:                                              13
       Number of primitive Cartesian functions:                               13
       Number of Cartesian basis functions:                                   33
       Number of spherical basis functions:                                   31
       Norm type:                                                              2

       Normalised Cartesian orbitals:

                        Set   Shell   Orbital            Exponent    Coefficient

                          1       1    1s                0.224932       0.232781

                          2       1    7px               0.279478       0.289650
                          2       1    7py               0.279478       0.289650
                          2       1    7pz               0.279478       0.289650

                          3       1   12dx2              0.469344       0.438046
                          3       1   12dxy              0.469344       0.758718
                          3       1   12dxz              0.469344       0.758718
                          3       1   12dy2              0.469344       0.438046
                          3       1   12dyz              0.469344       0.758718
                          3       1   12dz2              0.469344       0.438046

                          4       1    2s                0.497908       0.422447

                          5       1    8px               0.531011       0.646130
                          5       1    8py               0.531011       0.646130
                          5       1    8pz               0.531011       0.646130

                          6       1    3s                0.987287       0.705899

                          7       1   13dx2              1.473035       3.241772
                          7       1   13dxy              1.473035       5.614913
                          7       1   13dxz              1.473035       5.614913
                          7       1   13dy2              1.473035       3.241772
                          7       1   13dyz              1.473035       5.614913
                          7       1   13dz2              1.473035       3.241772

                          8       1    9px               1.518539       2.402827
                          8       1    9py               1.518539       2.402827
                          8       1    9pz               1.518539       2.402827

                          9       1    4s                1.784647       1.100460

                         10       1    5s                5.118749       2.425398

                         11       1   10px               6.826343      15.728062
                         11       1   10py               6.826343      15.728062
                         11       1   10pz               6.826343      15.728062

                         12       1   11px              18.266250      53.827205
                         12       1   11py              18.266250      53.827205
                         12       1   11pz              18.266250      53.827205

                         13       1    6s               26.803960       8.395746

       Atomic covalent radius [Angstrom]:                                  0.320

       Atomic van der Waals radius [Angstrom]:                             1.090

     The atoms of this atomic kind are PAW atoms (GAPW):
       Hard Gaussian function radius:                                      1.200
       Rho0 radius:                                                        1.200
       Maximum GTO radius used for PAW projector construction:            24.566

     GAPW Soft Basis Set                                 aug-TZVP-MOLOPT-ae_soft

       Number of orbital shell sets:                                           1
       Number of orbital shells:                                               9
       Number of primitive Cartesian functions:                                5
       Number of Cartesian basis functions:                                   25
       Number of spherical basis functions:                                   23
       Norm type:                                                              2

       Normalised Cartesian orbitals:

                        Set   Shell   Orbital            Exponent    Coefficient

                          1       1    1s                0.030000       0.000000
                                                         0.091371      -0.049397
                                                         0.293823      -0.051765
                                                         1.065127       0.831136
                                                         4.947701      -0.270539

                          1       2    2s                0.030000       0.000000
                                                         0.091371      -0.041080
                                                         0.293823       0.227881
                                                         1.065127       0.154529
                                                         4.947701       0.528758

                          1       3    3s                0.030000       0.000000
                                                         0.091371       0.076395
                                                         0.293823       0.077306
                                                         1.065127       0.164523
                                                         4.947701      -0.040048

                          1       4    4s                0.030000       0.043550
                                                         0.091371      -0.026138
                                                         0.293823      -0.246542
                                                         1.065127      -0.077212
                                                         4.947701       0.000000

                          1       5    2px               0.030000       0.000000
                                                         0.091371       0.008886
                                                         0.293823      -0.007684
                                                         1.065127       1.416453
                                                         4.947701       1.341091
                          1       5    2py               0.030000       0.000000
                                                         0.091371       0.008886
                                                         0.293823      -0.007684
                                                         1.065127       1.416453
                                                         4.947701       1.341091
                          1       5    2pz               0.030000       0.000000
                                                         0.091371       0.008886
                                                         0.293823      -0.007684
                                                         1.065127       1.416453
                                                         4.947701       1.341091

                          1       6    3px               0.030000       0.000000
                                                         0.091371      -0.013062
                                                         0.293823       0.330130
                                                         1.065127       0.106963
                                                         4.947701      -0.549928
                          1       6    3py               0.030000       0.000000
                                                         0.091371      -0.013062
                                                         0.293823       0.330130
                                                         1.065127       0.106963
                                                         4.947701      -0.549928
                          1       6    3pz               0.030000       0.000000
                                                         0.091371      -0.013062
                                                         0.293823       0.330130
                                                         1.065127       0.106963
                                                         4.947701      -0.549928

                          1       7    4px               0.030000       0.014060
                                                         0.091371       0.022273
                                                         0.293823      -0.026384
                                                         1.065127       0.024249
                                                         4.947701       0.000000
                          1       7    4py               0.030000       0.014060
                                                         0.091371       0.022273
                                                         0.293823      -0.026384
                                                         1.065127       0.024249
                                                         4.947701       0.000000
                          1       7    4pz               0.030000       0.014060
                                                         0.091371       0.022273
                                                         0.293823      -0.026384
                                                         1.065127       0.024249
                                                         4.947701       0.000000

                          1       8    3dx2              0.030000       0.000000
                                                         0.091371      -0.004737
                                                         0.293823       0.052231
                                                         1.065127       1.617163
                                                         4.947701      -1.124420
                          1       8    3dxy              0.030000       0.000000
                                                         0.091371      -0.008204
                                                         0.293823       0.090468
                                                         1.065127       2.801009
                                                         4.947701      -1.947552
                          1       8    3dxz              0.030000       0.000000
                                                         0.091371      -0.008204
                                                         0.293823       0.090468
                                                         1.065127       2.801009
                                                         4.947701      -1.947552
                          1       8    3dy2              0.030000       0.000000
                                                         0.091371      -0.004737
                                                         0.293823       0.052231
                                                         1.065127       1.617163
                                                         4.947701      -1.124420
                          1       8    3dyz              0.030000       0.000000
                                                         0.091371      -0.008204
                                                         0.293823       0.090468
                                                         1.065127       2.801009
                                                         4.947701      -1.947552
                          1       8    3dz2              0.030000       0.000000
                                                         0.091371      -0.004737
                                                         0.293823       0.052231
                                                         1.065127       1.617163
                                                         4.947701      -1.124420

                          1       9    4dx2              0.030000       0.002444
                                                         0.091371       0.004703
                                                         0.293823       0.069647
                                                         1.065127       0.196246
                                                         4.947701       0.000000
                          1       9    4dxy              0.030000       0.004233
                                                         0.091371       0.008146
                                                         0.293823       0.120632
                                                         1.065127       0.339908
                                                         4.947701       0.000000
                          1       9    4dxz              0.030000       0.004233
                                                         0.091371       0.008146
                                                         0.293823       0.120632
                                                         1.065127       0.339908
                                                         4.947701       0.000000
                          1       9    4dy2              0.030000       0.002444
                                                         0.091371       0.004703
                                                         0.293823       0.069647
                                                         1.065127       0.196246
                                                         4.947701       0.000000
                          1       9    4dyz              0.030000       0.004233
                                                         0.091371       0.008146
                                                         0.293823       0.120632
                                                         1.065127       0.339908
                                                         4.947701       0.000000
                          1       9    4dz2              0.030000       0.002444
                                                         0.091371       0.004703
                                                         0.293823       0.069647
                                                         1.065127       0.196246
                                                         4.947701       0.000000

     AE Potential information for                                            ALL

       Description:                                       All-electron potential
                                          Krack, Parrinello, PCCP 2, 2105 (2000)

       Gaussian exponent of the core charge distribution:              12.500000
       Electronic configuration (s p d ...):                           1   0   0

  2. Atomic kind: C                                     Number of atoms:       3

     Orbital Basis Set                                        aug-TZVP-MOLOPT-ae

       Number of orbital shell sets:                                           2
       Number of orbital shells:                                              16
       Number of primitive Cartesian functions:                               13
       Number of Cartesian basis functions:                                   71
       Number of spherical basis functions:                                   56
       Norm type:                                                              2

       Normalised Cartesian orbitals:

                        Set   Shell   Orbital            Exponent    Coefficient

                          1       1    1s                0.040000       0.000000
                                                         0.097098       0.019281
                                                         0.283960       0.027513
                                                         0.806764       0.003692
                                                         2.441624       0.446183
                                                         6.739673       1.752510
                                                        34.417212       0.637474

                          1       2    2s                0.040000       0.000000
                                                         0.097098       0.029117
                                                         0.283960       0.094997
                                                         0.806764       0.362633
                                                         2.441624      -0.104551
                                                         6.739673      -0.288836
                                                        34.417212       1.102934

                          1       3    3s                0.040000       0.000000
                                                         0.097098       0.047046
                                                         0.283960       0.169545
                                                         0.806764      -0.252838
                                                         2.441624      -0.199197
                                                         6.739673      -0.168746
                                                        34.417212      -6.120053

                          1       4    4s                0.040000       0.000000
                                                         0.097098       0.188374
                                                         0.283960      -0.341415
                                                         0.806764       0.091223
                                                         2.441624      -0.053941
                                                         6.739673      -0.401007
                                                        34.417212      -3.786931

                          1       5    5s                0.040000       0.099533
                                                         0.097098      -0.167672
                                                         0.283960      -0.126383
                                                         0.806764       0.030074
                                                         2.441624       0.000000
                                                         6.739673       0.000000
                                                        34.417212       0.000000

                          1       6    2px               0.040000       0.000000
                                                         0.097098       0.005087
                                                         0.283960       0.032186
                                                         0.806764       0.779023
                                                         2.441624       0.695625
                                                         6.739673       2.243109
                                                        34.417212       2.016536
                          1       6    2py               0.040000       0.000000
                                                         0.097098       0.005087
                                                         0.283960       0.032186
                                                         0.806764       0.779023
                                                         2.441624       0.695625
                                                         6.739673       2.243109
                                                        34.417212       2.016536
                          1       6    2pz               0.040000       0.000000
                                                         0.097098       0.005087
                                                         0.283960       0.032186
                                                         0.806764       0.779023
                                                         2.441624       0.695625
                                                         6.739673       2.243109
                                                        34.417212       2.016536

                          1       7    3px               0.040000       0.000000
                                                         0.097098       0.008084
                                                         0.283960       0.294367
                                                         0.806764      -0.188640
                                                         2.441624       0.912249
                                                         6.739673      -2.720242
                                                        34.417212       1.690366
                          1       7    3py               0.040000       0.000000
                                                         0.097098       0.008084
                                                         0.283960       0.294367
                                                         0.806764      -0.188640
                                                         2.441624       0.912249
                                                         6.739673      -2.720242
                                                        34.417212       1.690366
                          1       7    3pz               0.040000       0.000000
                                                         0.097098       0.008084
                                                         0.283960       0.294367
                                                         0.806764      -0.188640
                                                         2.441624       0.912249
                                                         6.739673      -2.720242
                                                        34.417212       1.690366

                          1       8    4px               0.040000       0.000000
                                                         0.097098       0.081068
                                                         0.283960      -0.017243
                                                         0.806764      -0.070055
                                                         2.441624      -0.855991
                                                         6.739673       1.761645
                                                        34.417212     -12.705833
                          1       8    4py               0.040000       0.000000
                                                         0.097098       0.081068
                                                         0.283960      -0.017243
                                                         0.806764      -0.070055
                                                         2.441624      -0.855991
                                                         6.739673       1.761645
                                                        34.417212     -12.705833
                          1       8    4pz               0.040000       0.000000
                                                         0.097098       0.081068
                                                         0.283960      -0.017243
                                                         0.806764      -0.070055
                                                         2.441624      -0.855991
                                                         6.739673       1.761645
                                                        34.417212     -12.705833

                          1       9    5px               0.040000       0.032085
                                                         0.097098      -0.027366
                                                         0.283960      -0.100343
                                                         0.806764      -0.020266
                                                         2.441624       0.000000
                                                         6.739673       0.000000
                                                        34.417212       0.000000
                          1       9    5py               0.040000       0.032085
                                                         0.097098      -0.027366
                                                         0.283960      -0.100343
                                                         0.806764      -0.020266
                                                         2.441624       0.000000
                                                         6.739673       0.000000
                                                        34.417212       0.000000
                          1       9    5pz               0.040000       0.032085
                                                         0.097098      -0.027366
                                                         0.283960      -0.100343
                                                         0.806764      -0.020266
                                                         2.441624       0.000000
                                                         6.739673       0.000000
                                                        34.417212       0.000000

                          1      10    3dx2              0.040000       0.000000
                                                         0.097098       0.001415
                                                         0.283960       0.015501
                                                         0.806764       0.546922
                                                         2.441624       3.763414
                                                         6.739673       4.248634
                                                        34.417212     174.894573
                          1      10    3dxy              0.040000       0.000000
                                                         0.097098       0.002451
                                                         0.283960       0.026849
                                                         0.806764       0.947296
                                                         2.441624       6.518424
                                                         6.739673       7.358850
                                                        34.417212     302.926287
                          1      10    3dxz              0.040000       0.000000
                                                         0.097098       0.002451
                                                         0.283960       0.026849
                                                         0.806764       0.947296
                                                         2.441624       6.518424
                                                         6.739673       7.358850
                                                        34.417212     302.926287
                          1      10    3dy2              0.040000       0.000000
                                                         0.097098       0.001415
                                                         0.283960       0.015501
                                                         0.806764       0.546922
                                                         2.441624       3.763414
                                                         6.739673       4.248634
                                                        34.417212     174.894573
                          1      10    3dyz              0.040000       0.000000
                                                         0.097098       0.002451
                                                         0.283960       0.026849
                                                         0.806764       0.947296
                                                         2.441624       6.518424
                                                         6.739673       7.358850
                                                        34.417212     302.926287
                          1      10    3dz2              0.040000       0.000000
                                                         0.097098       0.001415
                                                         0.283960       0.015501
                                                         0.806764       0.546922
                                                         2.441624       3.763414
                                                         6.739673       4.248634
                                                        34.417212     174.894573

                          1      11    4dx2              0.040000       0.000000
                                                         0.097098       0.001225
                                                         0.283960       0.139703
                                                         0.806764       0.323683
                                                         2.441624      -2.510108
                                                         6.739673      -4.401044
                                                        34.417212    -164.169372
                          1      11    4dxy              0.040000       0.000000
                                                         0.097098       0.002122
                                                         0.283960       0.241972
                                                         0.806764       0.560636
                                                         2.441624      -4.347634
                                                         6.739673      -7.622831
                                                        34.417212    -284.349694
                          1      11    4dxz              0.040000       0.000000
                                                         0.097098       0.002122
                                                         0.283960       0.241972
                                                         0.806764       0.560636
                                                         2.441624      -4.347634
                                                         6.739673      -7.622831
                                                        34.417212    -284.349694
                          1      11    4dy2              0.040000       0.000000
                                                         0.097098       0.001225
                                                         0.283960       0.139703
                                                         0.806764       0.323683
                                                         2.441624      -2.510108
                                                         6.739673      -4.401044
                                                        34.417212    -164.169372
                          1      11    4dyz              0.040000       0.000000
                                                         0.097098       0.002122
                                                         0.283960       0.241972
                                                         0.806764       0.560636
                                                         2.441624      -4.347634
                                                         6.739673      -7.622831
                                                        34.417212    -284.349694
                          1      11    4dz2              0.040000       0.000000
                                                         0.097098       0.001225
                                                         0.283960       0.139703
                                                         0.806764       0.323683
                                                         2.441624      -2.510108
                                                         6.739673      -4.401044
                                                        34.417212    -164.169372

                          1      12    5dx2              0.040000       0.006049
                                                         0.097098      -0.003128
                                                         0.283960       0.033814
                                                         0.806764       0.003338
                                                         2.441624       0.000000
                                                         6.739673       0.000000
                                                        34.417212       0.000000
                          1      12    5dxy              0.040000       0.010477
                                                         0.097098      -0.005418
                                                         0.283960       0.058567
                                                         0.806764       0.005781
                                                         2.441624       0.000000
                                                         6.739673       0.000000
                                                        34.417212       0.000000
                          1      12    5dxz              0.040000       0.010477
                                                         0.097098      -0.005418
                                                         0.283960       0.058567
                                                         0.806764       0.005781
                                                         2.441624       0.000000
                                                         6.739673       0.000000
                                                        34.417212       0.000000
                          1      12    5dy2              0.040000       0.006049
                                                         0.097098      -0.003128
                                                         0.283960       0.033814
                                                         0.806764       0.003338
                                                         2.441624       0.000000
                                                         6.739673       0.000000
                                                        34.417212       0.000000
                          1      12    5dyz              0.040000       0.010477
                                                         0.097098      -0.005418
                                                         0.283960       0.058567
                                                         0.806764       0.005781
                                                         2.441624       0.000000
                                                         6.739673       0.000000
                                                        34.417212       0.000000
                          1      12    5dz2              0.040000       0.006049
                                                         0.097098      -0.003128
                                                         0.283960       0.033814
                                                         0.806764       0.003338
                                                         2.441624       0.000000
                                                         6.739673       0.000000
                                                        34.417212       0.000000

                          1      13    4fx3              0.040000       0.000000
                                                         0.097098      -0.000799
                                                         0.283960       0.042127
                                                         0.806764       0.576468
                                                         2.441624       1.033755
                                                         6.739673      -2.026957
                                                        34.417212      49.427593
                          1      13    4fx2y             0.040000       0.000000
                                                         0.097098      -0.001786
                                                         0.283960       0.094199
                                                         0.806764       1.289022
                                                         2.441624       2.311546
                                                         6.739673      -4.532415
                                                        34.417212     110.523457
                          1      13    4fx2z             0.040000       0.000000
                                                         0.097098      -0.001786
                                                         0.283960       0.094199
                                                         0.806764       1.289022
                                                         2.441624       2.311546
                                                         6.739673      -4.532415
                                                        34.417212     110.523457
                          1      13    4fxy2             0.040000       0.000000
                                                         0.097098      -0.001786
                                                         0.283960       0.094199
                                                         0.806764       1.289022
                                                         2.441624       2.311546
                                                         6.739673      -4.532415
                                                        34.417212     110.523457
                          1      13    4fxyz             0.040000       0.000000
                                                         0.097098      -0.003093
                                                         0.283960       0.163158
                                                         0.806764       2.232651
                                                         2.441624       4.003716
                                                         6.739673      -7.850372
                                                        34.417212     191.432243
                          1      13    4fxz2             0.040000       0.000000
                                                         0.097098      -0.001786
                                                         0.283960       0.094199
                                                         0.806764       1.289022
                                                         2.441624       2.311546
                                                         6.739673      -4.532415
                                                        34.417212     110.523457
                          1      13    4fy3              0.040000       0.000000
                                                         0.097098      -0.000799
                                                         0.283960       0.042127
                                                         0.806764       0.576468
                                                         2.441624       1.033755
                                                         6.739673      -2.026957
                                                        34.417212      49.427593
                          1      13    4fy2z             0.040000       0.000000
                                                         0.097098      -0.001786
                                                         0.283960       0.094199
                                                         0.806764       1.289022
                                                         2.441624       2.311546
                                                         6.739673      -4.532415
                                                        34.417212     110.523457
                          1      13    4fyz2             0.040000       0.000000
                                                         0.097098      -0.001786
                                                         0.283960       0.094199
                                                         0.806764       1.289022
                                                         2.441624       2.311546
                                                         6.739673      -4.532415
                                                        34.417212     110.523457
                          1      13    4fz3              0.040000       0.000000
                                                         0.097098      -0.000799
                                                         0.283960       0.042127
                                                         0.806764       0.576468
                                                         2.441624       1.033755
                                                         6.739673      -2.026957
                                                        34.417212      49.427593

                          1      14    5fx3              0.040000       0.000092
                                                         0.097098       0.001511
                                                         0.283960      -0.094589
                                                         0.806764       0.000869
                                                         2.441624       0.000000
                                                         6.739673       0.000000
                                                        34.417212       0.000000
                          1      14    5fx2y             0.040000       0.000206
                                                         0.097098       0.003380
                                                         0.283960      -0.211507
                                                         0.806764       0.001943
                                                         2.441624       0.000000
                                                         6.739673       0.000000
                                                        34.417212       0.000000
                          1      14    5fx2z             0.040000       0.000206
                                                         0.097098       0.003380
                                                         0.283960      -0.211507
                                                         0.806764       0.001943
                                                         2.441624       0.000000
                                                         6.739673       0.000000
                                                        34.417212       0.000000
                          1      14    5fxy2             0.040000       0.000206
                                                         0.097098       0.003380
                                                         0.283960      -0.211507
                                                         0.806764       0.001943
                                                         2.441624       0.000000
                                                         6.739673       0.000000
                                                        34.417212       0.000000
                          1      14    5fxyz             0.040000       0.000357
                                                         0.097098       0.005854
                                                         0.283960      -0.366341
                                                         0.806764       0.003365
                                                         2.441624       0.000000
                                                         6.739673       0.000000
                                                        34.417212       0.000000
                          1      14    5fxz2             0.040000       0.000206
                                                         0.097098       0.003380
                                                         0.283960      -0.211507
                                                         0.806764       0.001943
                                                         2.441624       0.000000
                                                         6.739673       0.000000
                                                        34.417212       0.000000
                          1      14    5fy3              0.040000       0.000092
                                                         0.097098       0.001511
                                                         0.283960      -0.094589
                                                         0.806764       0.000869
                                                         2.441624       0.000000
                                                         6.739673       0.000000
                                                        34.417212       0.000000
                          1      14    5fy2z             0.040000       0.000206
                                                         0.097098       0.003380
                                                         0.283960      -0.211507
                                                         0.806764       0.001943
                                                         2.441624       0.000000
                                                         6.739673       0.000000
                                                        34.417212       0.000000
                          1      14    5fyz2             0.040000       0.000206
                                                         0.097098       0.003380
                                                         0.283960      -0.211507
                                                         0.806764       0.001943
                                                         2.441624       0.000000
                                                         6.739673       0.000000
                                                        34.417212       0.000000
                          1      14    5fz3              0.040000       0.000092
                                                         0.097098       0.001511
                                                         0.283960      -0.094589
                                                         0.806764       0.000869
                                                         2.441624       0.000000
                                                         6.739673       0.000000
                                                        34.417212       0.000000

                          1      15    5gx4              0.040000       0.000014
                                                         0.097098       0.001608
                                                         0.283960       0.004604
                                                         0.806764      -0.003474
                                                         2.441624       0.000000
                                                         6.739673       0.000000
                                                        34.417212       0.000000
                          1      15    5gx3y             0.040000       0.000036
                                                         0.097098       0.004255
                                                         0.283960       0.012180
                                                         0.806764      -0.009191
                                                         2.441624       0.000000
                                                         6.739673       0.000000
                                                        34.417212       0.000000
                          1      15    5gx3z             0.040000       0.000036
                                                         0.097098       0.004255
                                                         0.283960       0.012180
                                                         0.806764      -0.009191
                                                         2.441624       0.000000
                                                         6.739673       0.000000
                                                        34.417212       0.000000
                          1      15    5gx2y2            0.040000       0.000046
                                                         0.097098       0.005493
                                                         0.283960       0.015725
                                                         0.806764      -0.011865
                                                         2.441624       0.000000
                                                         6.739673       0.000000
                                                        34.417212       0.000000
                          1      15    5gx2yz            0.040000       0.000080
                                                         0.097098       0.009514
                                                         0.283960       0.027236
                                                         0.806764      -0.020551
                                                         2.441624       0.000000
                                                         6.739673       0.000000
                                                        34.417212       0.000000
                          1      15    5gx2z2            0.040000       0.000046
                                                         0.097098       0.005493
                                                         0.283960       0.015725
                                                         0.806764      -0.011865
                                                         2.441624       0.000000
                                                         6.739673       0.000000
                                                        34.417212       0.000000
                          1      15    5gxy3             0.040000       0.000036
                                                         0.097098       0.004255
                                                         0.283960       0.012180
                                                         0.806764      -0.009191
                                                         2.441624       0.000000
                                                         6.739673       0.000000
                                                        34.417212       0.000000
                          1      15    5gxy2z            0.040000       0.000080
                                                         0.097098       0.009514
                                                         0.283960       0.027236
                                                         0.806764      -0.020551
                                                         2.441624       0.000000
[...]
 Electronic Structure Calculations on Graphics Processing Units, 173-190 (2016).
 GPU-Accelerated Sparse Matrix-Matrix Multiplication for Linear Scaling Density 
 Functional Theory.
 https://doi.org/10.1002/9781118670712.ch8

 J. Wilhelm, M. Del Ben, J. Hutter.
 J. Chem. Theory Comput. 12, 3623-3635 (2016).
 GW in the Gaussian and plane waves scheme with application to linear acenes.
 https://doi.org/10.1021/acs.jctc.6b00380

 A. Heinecke, G. Henry, M. Hutchinson, H. Pabst.
 Proceedings of Intl. Supercomputing Conference, 981-991 (2016).
 LIBXSMM: Accelerating Small Matrix Multiplications by Runtime Code Generation.
 https://doi.org/10.1109/SC.2016.83

 M. Del Ben, O. Schuett, T. Wentz, P. Messmer, J. Hutter, J. VandeVondele.
 Comput. Phys. Commun. 187, 120-129 (2015).
 Enabling simulation at the fifth rung of DFT: Large scale RPA calculations with 
 excellent time to solution.
 https://doi.org/10.1016/j.cpc.2014.10.021

 J. Hutter, M. Iannuzzi, F. Schiffmann, J. VandeVondele.
 WIREs Comput Mol Sci. 4, 15-25 (2014).
 CP2K: atomistic simulations of condensed matter systems.
 https://doi.org/10.1002/wcms.1159

 U. Borstnik, J. VandeVondele, V. Weber, J. Hutter.
 Parallel Comput. 40, 47-58 (2014).
 Sparse matrix multiplication: The distributed block-compressed sparse row 
 library.
 https://doi.org/10.1016/j.parco.2014.03.012

 A. Marek, V. Blum, R. Johanni, V. Havu, B. Lang, T. Auckenthaler, A. Heinecke, 
 H. Bungartz, H. Lederer.
 J. Phys. Condens. Matter 26, 213201 (2014).
 The ELPA library: scalable parallel eigenvalue solutions for electronic 
 structure theory and computational science.
 https://doi.org/10.1088/0953-8984/26/21/213201

 M. Del Ben, J. Hutter, J. VandeVondele.
 J. Chem. Theory Comput. 9, 2654-2671 (2013).
 Electron Correlation in the Condensed Phase from a Resolution of Identity 
 Approach Based on the Gaussian and Plane Waves Scheme.
 https://doi.org/10.1021/ct4002202

 M. Del Ben, J. Hutter, J. VandeVondele.
 J. Chem. Theory Comput. 8, 4177-4188 (2012).
 Second-Order Moller-Plesset Perturbation Theory in the Condensed Phase: An 
 Efficient and Massively Parallel Gaussian and Plane Waves Approach.
 https://doi.org/10.1021/ct300531w

 M. Guidon, J. Hutter, J. VandeVondele.
 J. Chem. Theory Comput. 5, 3010-3021 (2009).
 Robust Periodic Hartree-Fock Exchange for Large-Scale Simulations Using 
 Gaussian Basis Sets.
 https://doi.org/10.1021/ct900494g

 M. Guidon, F. Schiffmann, J. Hutter, J. VandeVondele.
 J. Chem. Phys. 128, 214104 (2008).
 Ab initio molecular dynamics using hybrid density functionals.
 https://doi.org/10.1063/1.2931945

 L. Genovese, T. Deutsch, S. Goedecker.
 J. Chem. Phys. 127, 054704 (2007).
 Efficient and accurate three-dimensional Poisson solver for surface problems.
 https://doi.org/10.1063/1.2754685

 J. VandeVondele, J. Hutter.
 J. Chem. Phys. 127, 114105 (2007).
 Gaussian basis sets for accurate calculations on molecular systems in gas and 
 condensed phases.
 https://doi.org/10.1063/1.2770708

 L. Genovese, T. Deutsch, A. Neelov, S. Goedecker, G. Beylkin.
 J. Chem. Phys. 125, 074105 (2006).
 Efficient solution of Poisson's equation with free boundary conditions.
 https://doi.org/10.1063/1.2335442

 M. Frigo, S. G. Johnson.
 Proc. IEEE 93, 216-231 (2005).
 The design and implementation of FFTW3.
 https://doi.org/10.1109/JPROC.2004.840301

 M. Krack, M. Parrinello.
 Phys. Chem. Chem. Phys. 2, 2105-2112 (2000).
 All-electron ab-initio molecular dynamics.
 https://doi.org/10.1039/b001167n

 G. Lippert, J. Hutter, M. Parrinello.
 Theor. Chem. Acc. 103, 124-140 (1999).
 The Gaussian and augmented-plane-wave density functional method for ab initio 
 molecular dynamics simulations.
 https://doi.org/10.1007/s002140050523

 J. P. Perdew, K. Burke, M. Ernzerhof.
 Phys. Rev. Lett. 77, 3865-3868 (1996).
 Generalized gradient approximation made simple.
 https://doi.org/10.1103/PhysRevLett.77.3865


 -------------------------------------------------------------------------------
 -                                                                             -
 -                                T I M I N G                                  -
 -                                                                             -
 -------------------------------------------------------------------------------
 SUBROUTINE                       CALLS  ASD         SELF TIME        TOTAL TIME
                                MAXIMUM       AVERAGE  MAXIMUM  AVERAGE  MAXIMUM
 CP2K                                 1  1.0    0.020    0.041  600.251  600.254
 qs_energies                          1  2.0    0.000    0.000  599.743  599.874
 scf_env_do_scf                       1  3.0    0.000    0.000  585.849  585.855
 scf_env_do_scf_inner_loop           65  4.0    0.001    0.003  585.849  585.855
 qs_ks_build_kohn_sham_matrix        66  7.0    0.010    0.011  542.944  542.977
 qs_ks_update_qs_env                 65  5.0    0.000    0.001  541.282  541.315
 rebuild_ks_matrix                   65  6.0    0.000    0.000  541.277  541.310
 hfx_ks_matrix                       66  8.0    0.001    0.001  402.277  402.302
 integrate_four_center               66  9.0    7.305    9.944  402.272  402.294
 integrate_four_center_main          66 10.0    5.203  133.503   85.776  389.153
 integrate_four_center_bin        10653 11.0   80.573  389.080   80.573  389.080
 mp_sync                            761  9.4  301.306  382.915  301.306  382.915
 fft_wrap_pw1pw2                   1377  9.9    0.035    0.041   71.712   72.949
 fft_wrap_pw1pw2_250                981 11.1    3.164    3.553   69.843   71.071
 fft3d_ps                          1377 11.9   22.452   24.636   56.180   57.682
 pw_poisson_solve                    66  8.0    0.789    0.955   51.450   51.481
 qs_vxc_create                       66  8.0    0.001    0.001   41.565   41.565
 xc_vxc_pw_create                    65  9.0    0.473    0.629   41.564   41.565
 ps_wavelet_solve                    66  9.0   11.333   12.910   34.799   34.969
 xc_pw_derive                       390 11.0    0.004    0.004   32.023   33.268
 mp_alltoall_z22v                  1377 13.9   27.957   30.051   27.957   30.051
 qs_rho_update_rho_low               66  5.0    0.001    0.001   28.542   28.554
 calculate_rho_elec                  66  6.0    0.257    0.283   27.748   27.749
 xc_pw_divergence                    65 10.0    0.002    0.002   21.429   22.653
 xc_rho_set_and_dset_create          65 10.0    0.617    0.950   19.196   20.263
 yz_to_x                            657 12.8    2.036    2.555   16.131   18.165
 x_to_yz                            720 13.1    3.666    4.123   17.529   17.953
 mp_alltoall_d45                     67 10.0   16.122   17.263   16.122   17.263
 density_rs2pw                       66  7.0    0.003    0.004   16.660   17.000
 mp_alltoall_d54                     66 10.0    7.459   16.616    7.459   16.616
 prepare_gapw_den                    66  8.0    0.001    0.001   15.740   15.868
 gspace_mixing                       64  5.0    0.250    0.276   15.507   15.523
 sum_up_and_integrate                66  8.0    0.001    0.002   15.353   15.372
 integrate_v_rspace                  66  9.0    0.002    0.002   15.142   15.220
 potential_pw2rs                     66 10.0    0.015    0.018   14.704   14.805
 mp2_main                             1  3.0    0.000    0.000   12.825   12.956
 transfer_pw2rs                     331 10.6    0.007    0.011   11.946   12.369
 grid_collocate_task_list            66  7.0   10.636   11.085   10.636   11.085
 mp2_gpw_main                         1  4.0    0.000    0.000   11.006   11.018
 broyden_mixing                      64  6.0   10.662   10.735   10.784   10.886
 rpa_ri_compute_en                    1  5.0    0.000    0.000    9.593    9.593
 mp_waitany                        8756 11.5    8.282    9.569    8.282    9.569
 rpa_num_int                          1  6.0    0.001    0.001    9.521    9.523
 transfer_rs2pw                     331  8.4    0.008    0.011    8.582    8.864
 put_rho0_on_grid                    66  9.0    0.263    0.297    8.434    8.561
 compute_GW_self_energy             100  7.0    0.001    0.001    8.138    8.224
 transfer_pw2rs_250                 133 10.9    2.435    2.726    7.609    8.142
 compute_GW_self_energy_deep        100  8.0    5.855    5.911    8.023    8.109
 calc_screening_functions             1 10.0    7.490    7.582    7.613    7.704
 mp_sum_d                          5307  6.7    6.457    7.172    6.457    7.172
 calculate_rho_atom                 132  9.0    0.708    7.116    0.708    7.116
 mp_sum_dv                        11448  9.9    6.413    6.847    6.413    6.847
 transfer_rs2pw_250                 133 10.0    2.517    2.675    5.242    5.539
 integrate_vhg0_rspace               66  8.0    0.147    0.179    5.264    5.394
 calculate_vxc_atom                  66  8.0    0.023    0.156    5.291    5.291
 gaVxcgb_GC                          65  9.0    0.251    5.101    0.251    5.101
 pw_scatter_p                       720 12.1    4.734    4.867    4.734    4.867
 pw_gather_p                        657 11.8    4.170    4.759    4.170    4.759
 pw_derive                          588 11.3    4.292    4.539    4.292    4.539
 mp_alltoall_d11v                  1296  9.5    2.499    3.689    2.499    3.689
 mp_waitall_1                     25318 12.0    2.341    3.575    2.341    3.575
 transfer_pw2rs_90                   66 12.0    0.426    0.512    2.741    3.157
 pw_copy                            985 10.6    3.046    3.141    3.046    3.141
 parallel_gemm_fm                   350  8.5    0.000    0.001    2.886    2.958
 parallel_gemm_fm_cosma             350  9.5    2.885    2.958    2.885    2.958
 xc_functional_eval                 195 10.8    0.001    0.002    2.095    2.862
 pbe_lda_eval                       195 11.8    2.094    2.861    2.094    2.861
 mp_isend_dm3                      2388 11.5    0.681    2.617    0.681    2.617
 pw_poisson_set                      67  8.9    0.002    0.002    2.509    2.540
 rs_grid_zero                       332 11.2    2.262    2.361    2.262    2.361
 mp_sum_dm                         1456  7.6    1.521    2.354    1.521    2.354
 transfer_rs2pw_90                   66  9.0    0.446    0.528    1.863    2.160
 cp2k_distribution_to_z_slices       66  9.0    0.840    0.967    1.909    2.014
 pw_copy_to_array                   657 11.8    1.731    1.991    1.731    1.991
 pw_copy_from_array                 720 12.1    1.599    1.758    1.599    1.758
 pw_axpy                            655  9.3    1.570    1.720    1.570    1.720
 fft_wrap_pw1pw2_90                 132 10.5    0.084    0.109    1.468    1.673
 compute_vec_Sigma_x_minus_vxc_       1  4.0    0.000    0.000    1.670    1.670
 transfer_pw2rs_30                   66 12.0    0.507    0.542    1.299    1.573
 mp2_ri_gpw_compute_in                1  5.0    0.001    0.001    1.395    1.395
 mp2_ri_gpw_compute_in_loop           1  6.0    0.000    0.000    1.388    1.388
 transfer_rs2pw_30                   66  9.0    0.317    0.348    1.185    1.369
 contract_B_L                         4  7.0    0.003    0.004    0.942    1.258
 mp_sendrecv_dv                    8316 10.0    1.078    1.242    1.078    1.242
 mp2_eri_3c_integrate                 1  7.0    0.001    0.001    0.396    1.168
 integrate_set_3c                   275  8.0    0.359    1.084    0.395    1.167
 mp_cart_create                     384 10.4    0.803    1.119    0.804    1.120
 dbt_pgrid_create_expert             84 10.8    0.000    0.000    0.789    1.105
 cp_fm_diag_elpa                     71  7.0    0.000    0.000    1.018    1.033
 cp_fm_diag_elpa_base                71  8.0    0.991    0.996    0.999    1.000
 qs_scf_new_mos                      65  5.0    0.001    0.001    0.949    0.975
 start_bse_calculation                1  7.0    0.000    0.001    0.885    0.885
 pw_zero                            392 10.3    0.763    0.885    0.763    0.885
 calculate_rho_atom_coeff            66  6.0    0.063    0.132    0.794    0.804
 eigensolver_symm                    66  6.0    0.005    0.006    0.734    0.745
 pw_poisson_rebuild                  66  9.0    0.000    0.000    0.633    0.655
 ps_wavelet_create                    1 10.0    0.000    0.000    0.633    0.655
 RS_z_slice_distribution              1 11.0    0.333    0.361    0.633    0.655
 pw_integral_ab_c1d_c1d_gs           66  9.0    0.511    0.531    0.582    0.649
 init_scf_run                         1  3.0    0.000    0.000    0.634    0.634
 scf_env_initial_rho_setup            1  4.0    0.000    0.000    0.623    0.624
 Vh_1c_gg_integrals                  66  8.0    0.029    0.433    0.507    0.565
 rs_gather_matrices                  66 10.0    0.002    0.010    0.350    0.472
 create_hermitian_form_of_ABBA        1  8.0    0.000    0.000    0.436    0.444
 mp_isend_dv                       8618 12.0    0.127    0.418    0.127    0.418
 update_ks_atom                      66  8.0    0.040    0.079    0.336    0.395
 grid_integrate_task_list            66 10.0    0.086    0.395    0.086    0.395
 rpa_num_int_RPA_matrix_operati     100  7.0    0.001    0.003    0.386    0.387
 fft_wrap_pw1pw2_30                 132 10.5    0.011    0.013    0.297    0.368
 diagonalize_C                        1  8.0    0.000    0.000    0.334    0.340
 mp_bcast_dm                        924  9.0    0.295    0.339    0.295    0.339
 transfer_rs2pw_10                   66  9.0    0.075    0.085    0.285    0.333
 calc_mat_Q                         100  8.0    0.000    0.000    0.324    0.328
 qs_energies_init_hamiltonians        1  3.0    0.000    0.000    0.327    0.328
 transfer_pw2rs_10                   66 12.0    0.100    0.113    0.289    0.326
 build_core_hamiltonian_matrix        1  4.0    0.000    0.000    0.326    0.326
 contract_S_to_Q                    100  9.0    0.000    0.001    0.320    0.325
 overlap_condnum                      1  5.0    0.000    0.000    0.320    0.325
 calculate_rho0_atom                132  9.0    0.284    0.324    0.284    0.324
 cp_fm_power                          2  7.5    0.006    0.007    0.299    0.307
 pw_scale                           261  9.5    0.206    0.307    0.206    0.307
 arnoldi_conjugate_gradient           5  6.0    0.008    0.009    0.294    0.294
 qs_init_subsys                       1  2.0    0.002    0.002    0.259    0.259
 mp_sum_l                           984  6.2    0.107    0.251    0.107    0.251
 integrate_four_center_getP          66 10.0    0.007    0.010    0.175    0.249
 qs_env_setup                         1  3.0    0.000    0.000    0.247    0.248
 qs_env_rebuild_pw_env                2  3.5    0.000    0.000    0.246    0.248
 pw_env_rebuild                       1  5.0    0.000    0.000    0.246    0.248
 mp2_main_alloc_hfx                   1  4.0    0.117    0.247    0.117    0.247
 mp_sum_i                            19  9.5    0.131    0.247    0.131    0.247
 restraint_control                    1  2.0    0.000    0.000    0.130    0.247
 cp_fm_to_fm_submat_general         112 10.1    0.081    0.242    0.081    0.242
 mp_irecv_dv                       8540 12.0    0.023    0.242    0.023    0.242
 integrate_four_center_load          66 10.0    0.000    0.000    0.094    0.238
 hfx_load_balance                     1 11.0    0.000    0.000    0.094    0.237
 hfx_load_balance_range               1 12.0    0.000    0.000    0.091    0.234
 mp_max_i                           579  2.8    0.157    0.231    0.157    0.231
 pw_grid_setup                        4  6.0    0.000    0.000    0.228    0.230
 pw_grid_setup_internal               4  7.0    0.003    0.004    0.228    0.230
 calc_pair_dist_radii                 1 10.0    0.146    0.147    0.224    0.227
 scale_and_distribute               132 10.0    0.185    0.219    0.185    0.219
 powell_optimize                 129971 11.0    0.200    0.213    0.200    0.213
 dbcsr_sym_matrix_vector_mult      2615  7.0    0.019    0.019    0.186    0.195
 pw_grid_sort                         4  8.0    0.121    0.123    0.166    0.182
 offload_free_buffer                 74  8.4    0.026    0.151    0.026    0.151
 copy_dbcsr_to_fm                   104  6.7    0.001    0.002    0.125    0.151
 dbcsr_complete_redistribute        238  8.5    0.009    0.011    0.113    0.144
 dbt_total                            8  8.0    0.000    0.000    0.141    0.141
 mp_irecv_dm3                      2388 11.5    0.023    0.139    0.023    0.139
 dbt_contract                         4  9.0    0.000    0.000    0.123    0.124
 calculate_dm_sparse                 65  6.0    0.000    0.000    0.117    0.122
 cp_dbcsr_plus_fm_fm_t               65  7.0    0.001    0.001    0.116    0.121
 cp_fm_cholesky_invert              101  8.0    0.100    0.111    0.100    0.111
 xc_pw_smooth                        65 10.0    0.000    0.000    0.086    0.108
 scf_post_calculation_gpw             1  3.0    0.000    0.000    0.107    0.107
 write_available_results              1  4.0    0.000    0.000    0.107    0.107
 write_mo_free_results                1  5.0    0.006    0.008    0.107    0.107
 dbcsr_multiply_generic             126  8.1    0.003    0.003    0.092    0.098
 dbcsr_desymmetrize_deep            106  7.6    0.002    0.003    0.072    0.097
 mp_alltoall_i22                    344  9.2    0.060    0.087    0.060    0.087
 dbcsr_finalize                    4864  9.8    0.004    0.016    0.020    0.085
 abc_contract                       275  9.0    0.036    0.083    0.036    0.083
 dbt_tas_multiply                     8 11.5    0.000    0.000    0.083    0.083
 dbt_tas_total                        8 12.5    0.001    0.002    0.083    0.083
 mp_bcast_b_src                     137  7.5    0.076    0.082    0.076    0.082
 dbcsr_add_d                       3973  7.0    0.002    0.002    0.020    0.082
 dbcsr_add_anytype                 3973  8.0    0.003    0.011    0.018    0.080
 create_integ_mat                     4  6.0    0.001    0.001    0.070    0.079
 array2fm                             4  7.0    0.000    0.000    0.055    0.077
 dbcsr_rep_row_to_rep_col_vec      2615  8.0    0.006    0.007    0.033    0.077
 external_control                    66  5.0    0.001    0.074    0.076    0.076
 write_mo_set_to_restart             65  5.0    0.001    0.051    0.046    0.075
 cp_fm_cholesky_decompose           102  9.0    0.063    0.072    0.063    0.072
 fft_wrap_pw1pw2_10                 132 10.5    0.003    0.003    0.069    0.072
 copy_fm_to_dbcsr                   134  8.1    0.000    0.000    0.064    0.067
 write_mo_set_low                     4  6.0    0.000    0.000    0.045    0.065
 cp_fm_write_unformatted              4  7.0    0.044    0.045    0.045    0.065
 dbcsr_col_vec_to_rep_row          2615  8.0    0.009    0.010    0.055    0.064
 sort_shells                          4  9.0    0.045    0.062    0.045    0.062
 mixing_init                          1  5.0    0.059    0.060    0.060    0.061
 create_qs_kind_set                   1  2.0    0.000    0.000    0.061    0.061
 read_qs_kind                         2  3.0    0.017    0.027    0.061    0.061
 -------------------------------------------------------------------------------

 The number of warnings for this run is : 0
 
 -------------------------------------------------------------------------------
  **** **** ******  **  PROGRAM ENDED AT                 2025-03-17 00:37:51.812
 ***** ** ***  *** **   PROGRAM RAN ON                     n2cn0974.ab2021.local
 **    ****   ******    PROGRAM RAN BY                                  metdyn02
 ***** **    ** ** **   PROGRAM PROCESS ID                               1872058
  **** **  *******  **  PROGRAM STOPPED IN /scratch/hpc-prf-metdyn/metdyn02_Remi
                                           /10_MOL/05_MOL/W4-11+ALK/propyne/TZVP
                                           /GW+BSE/RILIM
