 DBCSR| CPU Multiplication driver                                           BLAS (U)
 DBCSR| Multrec recursion limit                                              512 (U)
 DBCSR| Multiplication stack size                                           1000 (D)
 DBCSR| Maximum elements for images                                    UNLIMITED (U)
 DBCSR| Multiplicative factor virtual images                                   1 (U)
 DBCSR| Use multiplication densification                                       T (D)
 DBCSR| Multiplication size stacks                                             3 (U)
 DBCSR| Use memory pool for CPU allocation                                     F (U)
 DBCSR| Number of 3D layers                                               SINGLE (U)
 DBCSR| Use MPI memory allocation                                              F (U)
 DBCSR| Use RMA algorithm                                                      F (U)
 DBCSR| Use Communication thread                                               T (U)
 DBCSR| Communication thread load                                             75 (D)
 DBCSR| MPI: My process id                                                     0
 DBCSR| MPI: Number of processes                                             216
 DBCSR| OMP: Current number of threads                                         4
 DBCSR| OMP: Max number of threads                                             4
 DBCSR| Split modifier for TAS multiplication algorithm                  1.0E+00 (U)


  **** **** ******  **  PROGRAM STARTED AT               2025-04-02 22:31:37.205
 ***** ** ***  *** **   PROGRAM STARTED ON                          i08r03c04s04
 **    ****   ******    PROGRAM STARTED BY                               di38fab
 ***** **    ** ** **   PROGRAM PROCESS ID                               1656622
  **** **  *******  **  PROGRAM STARTED IN /hppfs/scratch/04/di38fab/07_MOL_non_
                                           aug/05_MOL_non_aug/05_MOL/aUKBqsEOTmq
                                           69kFe5R_nOg/5k_set_final_qzvp/WEBNUO0
                                           1/cc-pVTZ/TDDFT

 CP2K| version string:                 CP2K version 2025.1 (Development Version)
 CP2K| source code revision number:                                  git:d2e611a
 CP2K| cp2kflags: omp libint fftw3 libxc parallel scalapack max_contr=4         
 CP2K| is freely available from                            https://www.cp2k.org/
 CP2K| Program compiled at                       Thu 06 Mar 2025 05:09:20 PM CET
 CP2K| Program compiled on                                               login02
 CP2K| Program compiled for                                        Supermuc-foss
 CP2K| Data directory path                  /hppfs/work/pn36zo/di38fab/cp2k/data
 CP2K| Input file name                                                    GW.inp

 GLOBAL| Force Environment number                                              1
 GLOBAL| Basis set file name            /hppfs/scratch/04/di38fab/04_TMD/BASIS_A
 GLOBAL| Potential file name            /hppfs/work/pn36zo/di38fab/cp2k/data/ALL
 GLOBAL| MM Potential file name                                     MM_POTENTIAL
 GLOBAL| Coordinate file name                                      __STD_INPUT__
 GLOBAL| Method name                                                        CP2K
 GLOBAL| Project name                                                       MoS2
 GLOBAL| Run type                                                         ENERGY
 GLOBAL| FFT library                                                       FFTW3
 GLOBAL| Diagonalization library                                       ScaLAPACK
 GLOBAL| DGEMM library                                                      BLAS
 GLOBAL| Orthonormality check for eigenvectors                          DISABLED
 GLOBAL| Matrix multiplication library                                 ScaLAPACK
 GLOBAL| All-to-all communication in single precision                          F
 GLOBAL| FFTs using library dependent lengths                                  F
 GLOBAL| Grid backend                                                       AUTO
 GLOBAL| Global print level                                               MEDIUM
 GLOBAL| MPI I/O enabled                                                       T
 GLOBAL| Total number of message passing processes                           216
 GLOBAL| Number of threads for this process                                    4
 GLOBAL| This output is from process                                           0
 GLOBAL| OpenMP stack size per thread (OMP_STACKSIZE)                    default
 GLOBAL| CPU model name             Intel(R) Xeon(R) Platinum 8174 CPU @ 3.10GHz

 MEMORY| system memory details [Kb]
 MEMORY|                        rank 0           min           max       average
 MEMORY| MemTotal             98436664      98436660      98436708      98436671
 MEMORY| MemFree              84177712      83573912      84177712      83910373
 MEMORY| Buffers                     0             0             0             0
 MEMORY| Cached                2425784       2389900       2425784       2405109
 MEMORY| Slab                  1237612       1237612       1263756       1249944
 MEMORY| SReclaimable           274832        274832        287532        280651
 MEMORY| MemLikelyFree        86878328      86249596      86878328      86596134


 *** Fundamental physical constants (SI units) ***

 *** Literature: B. J. Mohr and B. N. Taylor,
 ***             CODATA recommended values of the fundamental physical
 ***             constants: 2006, Web Version 5.1
 ***             http://physics.nist.gov/constants

 Speed of light in vacuum [m/s]                             2.99792458000000E+08
 Magnetic constant or permeability of vacuum [N/A**2]       1.25663706143592E-06
 Electric constant or permittivity of vacuum [F/m]          8.85418781762039E-12
 Planck constant (h) [J*s]                                  6.62606896000000E-34
 Planck constant (h-bar) [J*s]                              1.05457162825177E-34
 Elementary charge [C]                                      1.60217648700000E-19
 Electron mass [kg]                                         9.10938215000000E-31
 Electron g factor [ ]                                     -2.00231930436220E+00
 Proton mass [kg]                                           1.67262163700000E-27
 Fine-structure constant                                    7.29735253760000E-03
 Rydberg constant [1/m]                                     1.09737315685270E+07
 Avogadro constant [1/mol]                                  6.02214179000000E+23
 Boltzmann constant [J/K]                                   1.38065040000000E-23
 Atomic mass unit [kg]                                      1.66053878200000E-27
 Bohr radius [m]                                            5.29177208590000E-11

 *** Conversion factors ***

 [u] -> [a.u.]                                              1.82288848426455E+03
 [Angstrom] -> [Bohr] = [a.u.]                              1.88972613288564E+00
 [a.u.] = [Bohr] -> [Angstrom]                              5.29177208590000E-01
 [a.u.] -> [s]                                              2.41888432650478E-17
 [a.u.] -> [fs]                                             2.41888432650478E-02
 [a.u.] -> [J]                                              4.35974393937059E-18
 [a.u.] -> [N]                                              8.23872205491840E-08
 [a.u.] -> [K]                                              3.15774647902944E+05
 [a.u.] -> [kJ/mol]                                         2.62549961709828E+03
 [a.u.] -> [kcal/mol]                                       6.27509468713739E+02
 [a.u.] -> [Pa]                                             2.94210107994716E+13
 [a.u.] -> [bar]                                            2.94210107994716E+08
 [a.u.] -> [atm]                                            2.90362800883016E+08
 [a.u.] -> [eV]                                             2.72113838565563E+01
 [a.u.] -> [Hz]                                             6.57968392072181E+15
 [a.u.] -> [1/cm] (wave numbers)                            2.19474631370540E+05
 [a.u./Bohr**2] -> [1/cm]                                   5.14048714338585E+03
 

 CELL_TOP| Volume [angstrom^3]:                                     27000.000000
 CELL_TOP| Vector a [angstrom    30.000     0.000     0.000   |a| =    30.000000
 CELL_TOP| Vector b [angstrom     0.000    30.000     0.000   |b| =    30.000000
 CELL_TOP| Vector c [angstrom     0.000     0.000    30.000   |c| =    30.000000
 CELL_TOP| Angle (b,c), alpha [degree]:                                90.000000
 CELL_TOP| Angle (a,c), beta  [degree]:                                90.000000
 CELL_TOP| Angle (a,b), gamma [degree]:                                90.000000
 CELL_TOP| Numerically orthorhombic:                                         YES
 CELL_TOP| Periodicity                                                      NONE

 GENERATE|  Preliminary Number of Bonds generated:                             0
 GENERATE|  Achieved consistency in connectivity generation.

 CELL| Volume [angstrom^3]:                                         27000.000000
 CELL| Vector a [angstrom]:      30.000     0.000     0.000   |a| =    30.000000
 CELL| Vector b [angstrom]:       0.000    30.000     0.000   |b| =    30.000000
 CELL| Vector c [angstrom]:       0.000     0.000    30.000   |c| =    30.000000
 CELL| Angle (b,c), alpha [degree]:                                    90.000000
 CELL| Angle (a,c), beta  [degree]:                                    90.000000
 CELL| Angle (a,b), gamma [degree]:                                    90.000000
 CELL| Numerically orthorhombic:                                             YES
 CELL| Periodicity                                                          NONE

 CELL_REF| Volume [angstrom^3]:                                     27000.000000
 CELL_REF| Vector a [angstrom    30.000     0.000     0.000   |a| =    30.000000
 CELL_REF| Vector b [angstrom     0.000    30.000     0.000   |b| =    30.000000
 CELL_REF| Vector c [angstrom     0.000     0.000    30.000   |c| =    30.000000
 CELL_REF| Angle (b,c), alpha [degree]:                                90.000000
 CELL_REF| Angle (a,c), beta  [degree]:                                90.000000
 CELL_REF| Angle (a,b), gamma [degree]:                                90.000000
 CELL_REF| Numerically orthorhombic:                                         YES
 CELL_REF| Periodicity                                                      NONE

 *******************************************************************************
 *******************************************************************************
 **                                                                           **
 **     #####                         ##              ##                      **
 **    ##   ##            ##          ##              ##                      **
 **   ##     ##                       ##            ######                    **
 **   ##     ##  ##   ##  ##   #####  ##  ##   ####   ##    #####    #####    **
 **   ##     ##  ##   ##  ##  ##      ## ##   ##      ##   ##   ##  ##   ##   **
 **   ##  ## ##  ##   ##  ##  ##      ####     ###    ##   ######   ######    **
 **    ##  ###   ##   ##  ##  ##      ## ##      ##   ##   ##       ##        **
 **     #######   #####   ##   #####  ##  ##  ####    ##    #####   ##        **
 **           ##                                                    ##        **
 **                                                                           **
 **                                                ... make the atoms dance   **
 **                                                                           **
 **            Copyright (C) by CP2K developers group (2000-2025)             **
 **                      J. Chem. Phys. 152, 194103 (2020)                    **
 **                                                                           **
 *******************************************************************************

 DFT| Spin restricted Kohn-Sham (RKS) calculation                            RKS
 DFT| Multiplicity                                                             1
 DFT| Number of spin states                                                    1
 DFT| Charge                                                                   0
 DFT| Self-interaction correction (SIC)                                       NO
 DFT| Cutoffs: density                                              1.000000E-10
 DFT|          gradient                                             1.000000E-10
 DFT|          tau                                                  1.000000E-10
 DFT|          cutoff_smoothing_range                               0.000000E+00
 DFT| XC density smoothing                                                  NONE
 DFT| XC derivatives                                                          PW

 FUNCTIONAL| PBE:
 FUNCTIONAL| J.P.Perdew, K.Burke, M.Ernzerhof, Phys. Rev. Letter, vol. 77, n 18,
 FUNCTIONAL|  pp. 3865-3868, (1996)sx=0.750sc=1.000{spin unpolarized}           


 QS| Method:                                                                GAPW
 QS| Density plane wave grid type                        NON-SPHERICAL FULLSPACE
 QS| Number of grid levels:                                                    4
 QS| Density cutoff [a.u.]:                                                250.0
 QS| Multi grid cutoff [a.u.]: 1) grid level                               250.0
 QS|                           2) grid level                                83.3
 QS|                           3) grid level                                27.8
 QS|                           4) grid level                                 9.3
 QS| Grid level progression factor:                                          3.0
 QS| Relative density cutoff [a.u.]:                                        50.0
 QS| Interaction thresholds: eps_pgf_orb:                                1.0E-12
 QS|                         eps_filter_matrix:                          0.0E+00
 QS|                         eps_core_charge:                            1.0E-14
 QS|                         eps_rho_gspace:                             1.0E-12
 QS|                         eps_rho_rspace:                             1.0E-12
 QS|                         eps_gvg_rspace:                             1.0E-06
 QS|                         eps_ppl:                                    1.0E-02
 QS|                         eps_ppnl:                                   1.0E-08
 QS| GAPW|      One center basis from orbital basis primitives
 QS| GAPW|                   eps_fit:                                    1.0E-04
 QS| GAPW|                   eps_iso:                                    1.0E-12
 QS| GAPW|                   eps_svd:                                    1.0E-08
 QS| GAPW|                   eps_cpc:                                    1.0E-12
 QS| GAPW|   atom-r-grid: quadrature:                                     GC_LOG
 QS| GAPW|      atom-s-grid:  max l :                                          6
 QS| GAPW|      max_l_rho0 :                                                   2


 ATOMIC KIND INFORMATION

  1. Atomic kind: F                                     Number of atoms:       3

     Orbital Basis Set                                                   cc-pVTZ

       Number of orbital shell sets:                                           4
       Number of orbital shells:                                              10
       Number of primitive Cartesian functions:                               18
       Number of Cartesian basis functions:                                   35
       Number of spherical basis functions:                                   30
       Norm type:                                                              2

       Normalised Cartesian orbitals:

                        Set   Shell   Orbital            Exponent    Coefficient

                          1       1    1px              43.880000       0.000000
                                                         9.926000       0.000000
                                                         2.930000       0.000000
                                                         0.913200       1.272470
                                                         0.267200       0.000000
                          1       1    1py              43.880000       0.000000
                                                         9.926000       0.000000
                                                         2.930000       0.000000
                                                         0.913200       1.272470
                                                         0.267200       0.000000
                          1       1    1pz              43.880000       0.000000
                                                         9.926000       0.000000
                                                         2.930000       0.000000
                                                         0.913200       1.272470
                                                         0.267200       0.000000

                          1       2    2px              43.880000       2.682741
                                                         9.926000       2.623662
                                                         2.930000       1.733564
                                                         0.913200       0.620129
                                                         0.267200       0.091626
                          1       2    2py              43.880000       2.682741
                                                         9.926000       2.623662
                                                         2.930000       1.733564
                                                         0.913200       0.620129
                                                         0.267200       0.091626
                          1       2    2pz              43.880000       2.682741
                                                         9.926000       2.623662
                                                         2.930000       1.733564
                                                         0.913200       0.620129
                                                         0.267200       0.091626

                          1       3    3px              43.880000       0.000000
                                                         9.926000       0.000000
                                                         2.930000       0.000000
                                                         0.913200       0.000000
                                                         0.267200       0.273833
                          1       3    3py              43.880000       0.000000
                                                         9.926000       0.000000
                                                         2.930000       0.000000
                                                         0.913200       0.000000
                                                         0.267200       0.273833
                          1       3    3pz              43.880000       0.000000
                                                         9.926000       0.000000
                                                         2.930000       0.000000
                                                         0.913200       0.000000
                                                         0.267200       0.273833

                          2       1    1s            19500.000000       0.596272
                                                      2923.000000       1.111476
                                                       664.500000       1.884225
                                                       187.500000       2.853273
                                                        60.620000       3.568027
                                                        21.420000       3.071739
                                                         7.950000       1.180889
                                                         2.257000       0.056738
                                                         0.881500      -0.005117
                                                         0.304100       0.000696

                          2       2    2s            19500.000000       0.000000
                                                      2923.000000       0.000000
                                                       664.500000       0.000000
                                                       187.500000       0.000000
                                                        60.620000       0.000000
                                                        21.420000       0.000000
                                                         7.950000       0.000000
                                                         2.257000       1.312377
                                                         0.881500       0.000000
                                                         0.304100       0.000000

                          2       3    3s            19500.000000      -0.137601
                                                      2923.000000      -0.258390
                                                       664.500000      -0.439994
                                                       187.500000      -0.689248
                                                        60.620000      -0.923674
                                                        21.420000      -0.993536
                                                         7.950000      -0.596518
                                                         2.257000       0.225237
                                                         0.881500       0.392295
                                                         0.304100       0.107845

                          2       4    4s            19500.000000       0.000000
                                                      2923.000000       0.000000
                                                       664.500000       0.000000
                                                       187.500000       0.000000
                                                        60.620000       0.000000
                                                        21.420000       0.000000
                                                         7.950000       0.000000
                                                         2.257000       0.000000
                                                         0.881500       0.000000
                                                         0.304100       0.291859

                          3       1    1dx2              3.107000      11.967589
                                                         0.855000       0.000000
                          3       1    1dxy              3.107000      20.728471
                                                         0.855000       0.000000
                          3       1    1dxz              3.107000      20.728471
                                                         0.855000       0.000000
                          3       1    1dy2              3.107000      11.967589
                                                         0.855000       0.000000
                          3       1    1dyz              3.107000      20.728471
                                                         0.855000       0.000000
                          3       1    1dz2              3.107000      11.967589
                                                         0.855000       0.000000

                          3       2    2dx2              3.107000       0.000000
                                                         0.855000       1.251267
                          3       2    2dxy              3.107000       0.000000
                                                         0.855000       2.167259
                          3       2    2dxz              3.107000       0.000000
                                                         0.855000       2.167259
                          3       2    2dy2              3.107000       0.000000
                                                         0.855000       1.251267
                          3       2    2dyz              3.107000       0.000000
                                                         0.855000       2.167259
                          3       2    2dz2              3.107000       0.000000
                                                         0.855000       1.251267

                          4       1    1fx3              1.917000       6.365818
                          4       1    1fx2y             1.917000      14.234401
                          4       1    1fx2z             1.917000      14.234401
                          4       1    1fxy2             1.917000      14.234401
                          4       1    1fxyz             1.917000      24.654706
                          4       1    1fxz2             1.917000      14.234401
                          4       1    1fy3              1.917000       6.365818
                          4       1    1fy2z             1.917000      14.234401
                          4       1    1fyz2             1.917000      14.234401
                          4       1    1fz3              1.917000       6.365818

     RI Auxiliary Basis Set                                        cc-pVTZ-RIFIT

       Number of orbital shell sets:                                          23
       Number of orbital shells:                                              23
       Number of primitive Cartesian functions:                               23
       Number of Cartesian basis functions:                                  101
       Number of spherical basis functions:                                   81
       Norm type:                                                              2

       Normalised Cartesian orbitals:

                        Set   Shell   Orbital            Exponent    Coefficient

                          1       1    1s                0.452493       0.393205

                          2       1    1dx2              0.626987       0.727130
                          2       1    1dxy              0.626987       1.259427
                          2       1    1dxz              0.626987       1.259427
                          2       1    1dy2              0.626987       0.727130
                          2       1    1dyz              0.626987       1.259427
                          2       1    1dz2              0.626987       0.727130

                          3       1    1px               0.648796       0.829995
                          3       1    1py               0.648796       0.829995
                          3       1    1pz               0.648796       0.829995

                          4       1    1s                1.055048       0.741932

                          5       1    1px               1.260979       1.904692
                          5       1    1py               1.260979       1.904692
                          5       1    1pz               1.260979       1.904692

                          6       1    1fx3              1.439373       3.340752
                          6       1    1fx2y             1.439373       7.470148
                          6       1    1fx2z             1.439373       7.470148
                          6       1    1fxy2             1.439373       7.470148
                          6       1    1fxyz             1.439373      12.938676
                          6       1    1fxz2             1.439373       7.470148
                          6       1    1fy3              1.439373       3.340752
                          6       1    1fy2z             1.439373       7.470148
                          6       1    1fyz2             1.439373       7.470148
                          6       1    1fz3              1.439373       3.340752

                          7       1    1dx2              1.523280       3.437750
                          7       1    1dxy              1.523280       5.954357
                          7       1    1dxz              1.523280       5.954357
                          7       1    1dy2              1.523280       3.437750
                          7       1    1dyz              1.523280       5.954357
                          7       1    1dz2              1.523280       3.437750

                          8       1    1s                1.762717       1.090303

                          9       1    1px               2.636687       4.789204
                          9       1    1py               2.636687       4.789204
                          9       1    1pz               2.636687       4.789204

                         10       1    1fx3              2.969813      17.044917
                         10       1    1fx2y             2.969813      38.113592
                         10       1    1fx2z             2.969813      38.113592
                         10       1    1fxy2             2.969813      38.113592
                         10       1    1fxyz             2.969813      66.014679
                         10       1    1fxz2             2.969813      38.113592
                         10       1    1fy3              2.969813      17.044917
                         10       1    1fy2z             2.969813      38.113592
                         10       1    1fyz2             2.969813      38.113592
                         10       1    1fz3              2.969813      17.044917

                         11       1    1gx4              3.115637      25.333150
                         11       1    1gx3y             3.115637      67.025215
                         11       1    1gx3z             3.115637      67.025215
                         11       1    1gx2y2            3.115637      86.529180
                         11       1    1gx2yz            3.115637     149.872936
                         11       1    1gx2z2            3.115637      86.529180
                         11       1    1gxy3             3.115637      67.025215
                         11       1    1gxy2z            3.115637     149.872936
                         11       1    1gxyz2            3.115637     149.872936
                         11       1    1gxz3             3.115637      67.025215
                         11       1    1gy4              3.115637      25.333150
                         11       1    1gy3z             3.115637      67.025215
                         11       1    1gy2z2            3.115637      86.529180
                         11       1    1gyz3             3.115637      67.025215
                         11       1    1gz4              3.115637      25.333150

                         12       1    1s                3.665445       1.888014

                         13       1    1dx2              3.818510      17.168160
                         13       1    1dxy              3.818510      29.736125
                         13       1    1dxz              3.818510      29.736125
                         13       1    1dy2              3.818510      17.168160
                         13       1    1dyz              3.818510      29.736125
                         13       1    1dz2              3.818510      17.168160

                         14       1    1px               4.756681      10.013137
                         14       1    1py               4.756681      10.013137
                         14       1    1pz               4.756681      10.013137

                         15       1    1fx3              6.194743      89.126498
                         15       1    1fx2y             6.194743     199.292907
                         15       1    1fx2z             6.194743     199.292907
                         15       1    1fxy2             6.194743     199.292907
                         15       1    1fxyz             6.194743     345.185441
                         15       1    1fxz2             6.194743     199.292907
                         15       1    1fy3              6.194743      89.126498
                         15       1    1fy2z             6.194743     199.292907
                         15       1    1fyz2             6.194743     199.292907
                         15       1    1fz3              6.194743      89.126498

                         16       1    1dx2              6.421170      42.631854
                         16       1    1dxy              6.421170      73.840537
                         16       1    1dxz              6.421170      73.840537
                         16       1    1dy2              6.421170      42.631854
                         16       1    1dyz              6.421170      73.840537
                         16       1    1dz2              6.421170      42.631854

                         17       1    1s               11.543896       4.463488

                         18       1    1px              13.925625      38.344976
                         18       1    1py              13.925625      38.344976
                         18       1    1pz              13.925625      38.344976

                         19       1    1dx2             18.713622     277.131374
                         19       1    1dxy             18.713622     480.005621
                         19       1    1dxz             18.713622     480.005621
                         19       1    1dy2             18.713622     277.131374
                         19       1    1dyz             18.713622     480.005621
                         19       1    1dz2             18.713622     277.131374

                         20       1    1s               32.901243       9.790826

                         21       1    1px              51.725836     197.730876
                         21       1    1py              51.725836     197.730876
                         21       1    1pz              51.725836     197.730876

                         22       1    1s               94.574981      21.614355

                         23       1    1s              422.926164      66.467372

       Atomic covalent radius [Angstrom]:                                  0.720

       Atomic van der Waals radius [Angstrom]:                             1.470

     The atoms of this atomic kind are PAW atoms (GAPW):
       Hard Gaussian function radius:                                      1.512
       Rho0 radius:                                                        1.512
       Maximum GTO radius used for PAW projector construction:            24.566

     GAPW Soft Basis Set                                            cc-pVTZ_soft

       Number of orbital shell sets:                                           4
       Number of orbital shells:                                              10
       Number of primitive Cartesian functions:                                9
       Number of Cartesian basis functions:                                   35
       Number of spherical basis functions:                                   30
       Norm type:                                                              2

       Normalised Cartesian orbitals:

                        Set   Shell   Orbital            Exponent    Coefficient

                          1       1    1px               2.930000       0.000000
                                                         0.913200       1.272470
                                                         0.267200       0.000000
                          1       1    1py               2.930000       0.000000
                                                         0.913200       1.272470
                                                         0.267200       0.000000
                          1       1    1pz               2.930000       0.000000
                                                         0.913200       1.272470
                                                         0.267200       0.000000

                          1       2    2px               2.930000       1.733564
                                                         0.913200       0.620129
                                                         0.267200       0.091626
                          1       2    2py               2.930000       1.733564
                                                         0.913200       0.620129
                                                         0.267200       0.091626
                          1       2    2pz               2.930000       1.733564
                                                         0.913200       0.620129
                                                         0.267200       0.091626

                          1       3    3px               2.930000       0.000000
                                                         0.913200       0.000000
                                                         0.267200       0.273833
                          1       3    3py               2.930000       0.000000
                                                         0.913200       0.000000
                                                         0.267200       0.273833
                          1       3    3pz               2.930000       0.000000
                                                         0.913200       0.000000
                                                         0.267200       0.273833

                          2       1    1s                2.257000       0.056738
                                                         0.881500      -0.005117
                                                         0.304100       0.000696

                          2       2    2s                2.257000       1.312377
                                                         0.881500       0.000000
                                                         0.304100       0.000000

                          2       3    3s                2.257000       0.225237
                                                         0.881500       0.392295
                                                         0.304100       0.107845

                          2       4    4s                2.257000       0.000000
                                                         0.881500       0.000000
                                                         0.304100       0.291859

                          3       1    1dx2              3.107000      11.967589
                                                         0.855000       0.000000
                          3       1    1dxy              3.107000      20.728471
                                                         0.855000       0.000000
                          3       1    1dxz              3.107000      20.728471
                                                         0.855000       0.000000
                          3       1    1dy2              3.107000      11.967589
                                                         0.855000       0.000000
                          3       1    1dyz              3.107000      20.728471
                                                         0.855000       0.000000
                          3       1    1dz2              3.107000      11.967589
                                                         0.855000       0.000000

                          3       2    2dx2              3.107000       0.000000
                                                         0.855000       1.251267
                          3       2    2dxy              3.107000       0.000000
                                                         0.855000       2.167259
                          3       2    2dxz              3.107000       0.000000
                                                         0.855000       2.167259
                          3       2    2dy2              3.107000       0.000000
                                                         0.855000       1.251267
                          3       2    2dyz              3.107000       0.000000
                                                         0.855000       2.167259
                          3       2    2dz2              3.107000       0.000000
                                                         0.855000       1.251267

                          4       1    1fx3              1.917000       6.365818
                          4       1    1fx2y             1.917000      14.234401
                          4       1    1fx2z             1.917000      14.234401
                          4       1    1fxy2             1.917000      14.234401
                          4       1    1fxyz             1.917000      24.654706
                          4       1    1fxz2             1.917000      14.234401
                          4       1    1fy3              1.917000       6.365818
                          4       1    1fy2z             1.917000      14.234401
                          4       1    1fyz2             1.917000      14.234401
                          4       1    1fz3              1.917000       6.365818

     AE Potential information for                                            ALL

       Description:                                       All-electron potential
                                          Krack, Parrinello, PCCP 2, 2105 (2000)

       Gaussian exponent of the core charge distribution:              10.470541
       Electronic configuration (s p d ...):                           4   5   0

  2. Atomic kind: C                                     Number of atoms:       7

     Orbital Basis Set                                                   cc-pVTZ

       Number of orbital shell sets:                                           4
       Number of orbital shells:                                              10
       Number of primitive Cartesian functions:                               18
       Number of Cartesian basis functions:                                   35
       Number of spherical basis functions:                                   30
       Norm type:                                                              2

       Normalised Cartesian orbitals:

                        Set   Shell   Orbital            Exponent    Coefficient

                          1       1    1px              18.710000       0.000000
                                                         4.133000       0.000000
                                                         1.200000       0.000000
                                                         0.382700       0.429055
                                                         0.120900       0.000000
                          1       1    1py              18.710000       0.000000
                                                         4.133000       0.000000
                                                         1.200000       0.000000
                                                         0.382700       0.429055
                                                         0.120900       0.000000
                          1       1    1pz              18.710000       0.000000
                                                         4.133000       0.000000
                                                         1.200000       0.000000
                                                         0.382700       0.429055
                                                         0.120900       0.000000

                          1       2    2px              18.710000       0.778253
                                                         4.133000       0.729662
                                                         1.200000       0.519563
                                                         0.382700       0.214960
                                                         0.120900       0.034896
                          1       2    2py              18.710000       0.778253
                                                         4.133000       0.729662
                                                         1.200000       0.519563
                                                         0.382700       0.214960
                                                         0.120900       0.034896
                          1       2    2pz              18.710000       0.778253
                                                         4.133000       0.729662
                                                         1.200000       0.519563
                                                         0.382700       0.214960
                                                         0.120900       0.034896

                          1       3    3px              18.710000       0.000000
                                                         4.133000       0.000000
                                                         1.200000       0.000000
                                                         0.382700       0.000000
                                                         0.120900       0.101619
                          1       3    3py              18.710000       0.000000
                                                         4.133000       0.000000
                                                         1.200000       0.000000
                                                         0.382700       0.000000
                                                         0.120900       0.101619
                          1       3    3pz              18.710000       0.000000
                                                         4.133000       0.000000
                                                         1.200000       0.000000
                                                         0.382700       0.000000
                                                         0.120900       0.101619

                          2       1    1s             8236.000000       0.327184
                                                      1235.000000       0.609945
                                                       280.800000       1.030914
                                                        79.270000       1.549802
                                                        25.590000       1.904111
                                                         8.997000       1.608326
                                                         3.319000       0.606601
                                                         0.905900       0.026060
                                                         0.364300      -0.003002
                                                         0.128500       0.000365

                          2       2    2s             8236.000000       0.000000
                                                      1235.000000       0.000000
                                                       280.800000       0.000000
                                                        79.270000       0.000000
                                                        25.590000       0.000000
                                                         8.997000       0.000000
                                                         3.319000       0.000000
                                                         0.905900       0.661790
                                                         0.364300       0.000000
                                                         0.128500       0.000000

                          2       3    3s             8236.000000      -0.069627
                                                      1235.000000      -0.130363
                                                       280.800000      -0.221954
                                                        79.270000      -0.343330
                                                        25.590000      -0.452153
                                                         8.997000      -0.469816
                                                         3.319000      -0.298547
                                                         0.905900       0.092903
                                                         0.364300       0.200079
                                                         0.128500       0.060480

                          2       4    4s             8236.000000       0.000000
                                                      1235.000000       0.000000
                                                       280.800000       0.000000
                                                        79.270000       0.000000
                                                        25.590000       0.000000
                                                         8.997000       0.000000
                                                         3.319000       0.000000
                                                         0.905900       0.000000
                                                         0.364300       0.000000
                                                         0.128500       0.152963

                          3       1    1dx2              1.097000       1.935401
                                                         0.318000       0.000000
                          3       1    1dxy              1.097000       3.352214
                                                         0.318000       0.000000
                          3       1    1dxz              1.097000       3.352214
                                                         0.318000       0.000000
                          3       1    1dy2              1.097000       1.935401
                                                         0.318000       0.000000
                          3       1    1dyz              1.097000       3.352214
                                                         0.318000       0.000000
                          3       1    1dz2              1.097000       1.935401
                                                         0.318000       0.000000

                          3       2    2dx2              1.097000       0.000000
                                                         0.318000       0.221644
                          3       2    2dxy              1.097000       0.000000
                                                         0.318000       0.383899
                          3       2    2dxz              1.097000       0.000000
                                                         0.318000       0.383899
                          3       2    2dy2              1.097000       0.000000
                                                         0.318000       0.221644
                          3       2    2dyz              1.097000       0.000000
                                                         0.318000       0.383899
                          3       2    2dz2              1.097000       0.000000
                                                         0.318000       0.221644

                          4       1    1fx3              0.761000       0.796288
                          4       1    1fx2y             0.761000       1.780553
                          4       1    1fx2z             0.761000       1.780553
                          4       1    1fxy2             0.761000       1.780553
                          4       1    1fxyz             0.761000       3.084008
                          4       1    1fxz2             0.761000       1.780553
                          4       1    1fy3              0.761000       0.796288
                          4       1    1fy2z             0.761000       1.780553
                          4       1    1fyz2             0.761000       1.780553
                          4       1    1fz3              0.761000       0.796288

     RI Auxiliary Basis Set                                        cc-pVTZ-RIFIT

       Number of orbital shell sets:                                          23
       Number of orbital shells:                                              23
       Number of primitive Cartesian functions:                               23
       Number of Cartesian basis functions:                                  101
       Number of spherical basis functions:                                   81
       Norm type:                                                              2

       Normalised Cartesian orbitals:

                        Set   Shell   Orbital            Exponent    Coefficient

                          1       1    1s                0.215823       0.225675

                          2       1    1px               0.281527       0.292307
                          2       1    1py               0.281527       0.292307
                          2       1    1pz               0.281527       0.292307

                          3       1    1dx2              0.290556       0.189261
                          3       1    1dxy              0.290556       0.327810
                          3       1    1dxz              0.290556       0.327810
                          3       1    1dy2              0.290556       0.189261
                          3       1    1dyz              0.290556       0.327810
                          3       1    1dz2              0.290556       0.189261

                          4       1    1s                0.502749       0.425524

                          5       1    1fx3              0.541575       0.370413
                          5       1    1fx2y             0.541575       0.828268
                          5       1    1fx2z             0.541575       0.828268
                          5       1    1fxy2             0.541575       0.828268
                          5       1    1fxyz             0.541575       1.434603
                          5       1    1fxz2             0.541575       0.828268
                          5       1    1fy3              0.541575       0.370413
                          5       1    1fy2z             0.541575       0.828268
                          5       1    1fyz2             0.541575       0.828268
                          5       1    1fz3              0.541575       0.370413

                          6       1    1px               0.549413       0.674238
                          6       1    1py               0.549413       0.674238
                          6       1    1pz               0.549413       0.674238

                          7       1    1dx2              0.573708       0.622471
                          7       1    1dxy              0.573708       1.078151
                          7       1    1dxz              0.573708       1.078151
                          7       1    1dy2              0.573708       0.622471
                          7       1    1dyz              0.573708       1.078151
                          7       1    1dz2              0.573708       0.622471

                          8       1    1s                0.912450       0.665376

                          9       1    1px               1.037564       1.492652
                          9       1    1py               1.037564       1.492652
                          9       1    1pz               1.037564       1.492652

                         10       1    1fx3              1.196890       2.205852
                         10       1    1fx2y             1.196890       4.932435
                         10       1    1fx2z             1.196890       4.932435
                         10       1    1fxy2             1.196890       4.932435
                         10       1    1fxyz             1.196890       8.543228
                         10       1    1fxz2             1.196890       4.932435
                         10       1    1fy3              1.196890       2.205852
                         10       1    1fy2z             1.196890       4.932435
                         10       1    1fyz2             1.196890       4.932435
                         10       1    1fz3              1.196890       2.205852

                         11       1    1gx4              1.216610       1.908103
                         11       1    1gx3y             1.216610       5.048367
                         11       1    1gx3z             1.216610       5.048367
                         11       1    1gx2y2            1.216610       6.517414
                         11       1    1gx2yz            1.216610      11.288491
                         11       1    1gx2z2            1.216610       6.517414
                         11       1    1gxy3             1.216610       5.048367
                         11       1    1gxy2z            1.216610      11.288491
                         11       1    1gxyz2            1.216610      11.288491
                         11       1    1gxz3             1.216610       5.048367
                         11       1    1gy4              1.216610       1.908103
                         11       1    1gy3z             1.216610       5.048367
                         11       1    1gy2z2            1.216610       6.517414
                         11       1    1gyz3             1.216610       5.048367
                         11       1    1gz4              1.216610       1.908103

                         12       1    1dx2              1.467774       3.221535
                         12       1    1dxy              1.467774       5.579863
                         12       1    1dxz              1.467774       5.579863
                         12       1    1dy2              1.467774       3.221535
                         12       1    1dyz              1.467774       5.579863
                         12       1    1dz2              1.467774       3.221535

                         13       1    1s                1.562255       0.995919

                         14       1    1px               2.129088       3.665914
                         14       1    1py               2.129088       3.665914
                         14       1    1pz               2.129088       3.665914

                         15       1    1fx3              2.275620       9.363300
                         15       1    1fx2y             2.275620      20.936975
                         15       1    1fx2z             2.275620      20.936975
                         15       1    1fxy2             2.275620      20.936975
                         15       1    1fxyz             2.275620      36.263904
                         15       1    1fxz2             2.275620      20.936975
                         15       1    1fy3              2.275620       9.363300
                         15       1    1fy2z             2.275620      20.936975
                         15       1    1fyz2             2.275620      20.936975
                         15       1    1fz3              2.275620       9.363300

                         16       1    1dx2              3.035148      11.487463
                         16       1    1dxy              3.035148      19.896869
                         16       1    1dxz              3.035148      19.896869
                         16       1    1dy2              3.035148      11.487463
                         16       1    1dyz              3.035148      19.896869
                         16       1    1dz2              3.035148      11.487463

                         17       1    1px               6.476451      14.726905
                         17       1    1py               6.476451      14.726905
                         17       1    1pz               6.476451      14.726905

                         18       1    1s                6.862093       3.021708

                         19       1    1dx2              9.718981      88.053322
                         19       1    1dxy              9.718981     152.512828
                         19       1    1dxz              9.718981     152.512828
                         19       1    1dy2              9.718981      88.053322
                         19       1    1dyz              9.718981     152.512828
                         19       1    1dz2              9.718981      88.053322

                         20       1    1s               22.116651       7.268581

                         21       1    1px              24.231865      76.634379
                         21       1    1py              24.231865      76.634379
                         21       1    1pz              24.231865      76.634379

                         22       1    1s               60.230247      15.408880

                         23       1    1s              280.556612      48.856851

       Atomic covalent radius [Angstrom]:                                  0.770

       Atomic van der Waals radius [Angstrom]:                             1.700

     The atoms of this atomic kind are PAW atoms (GAPW):
       Hard Gaussian function radius:                                      1.512
       Rho0 radius:                                                        1.512
       Maximum GTO radius used for PAW projector construction:            24.566

     GAPW Soft Basis Set                                            cc-pVTZ_soft

       Number of orbital shell sets:                                           4
       Number of orbital shells:                                              10
       Number of primitive Cartesian functions:                               11
       Number of Cartesian basis functions:                                   35
       Number of spherical basis functions:                                   30
       Norm type:                                                              2

       Normalised Cartesian orbitals:

                        Set   Shell   Orbital            Exponent    Coefficient

                          1       1    1px               4.133000       0.000000
                                                         1.200000       0.000000
                                                         0.382700       0.429055
                                                         0.120900       0.000000
                          1       1    1py               4.133000       0.000000
                                                         1.200000       0.000000
                                                         0.382700       0.429055
                                                         0.120900       0.000000
                          1       1    1pz               4.133000       0.000000
                                                         1.200000       0.000000
                                                         0.382700       0.429055
                                                         0.120900       0.000000

                          1       2    2px               4.133000       0.729662
                                                         1.200000       0.519563
                                                         0.382700       0.214960
                                                         0.120900       0.034896
                          1       2    2py               4.133000       0.729662
                                                         1.200000       0.519563
                                                         0.382700       0.214960
                                                         0.120900       0.034896
                          1       2    2pz               4.133000       0.729662
                                                         1.200000       0.519563
                                                         0.382700       0.214960
                                                         0.120900       0.034896

                          1       3    3px               4.133000       0.000000
                                                         1.200000       0.000000
                                                         0.382700       0.000000
                                                         0.120900       0.101619
                          1       3    3py               4.133000       0.000000
                                                         1.200000       0.000000
                                                         0.382700       0.000000
                                                         0.120900       0.101619
                          1       3    3pz               4.133000       0.000000
                                                         1.200000       0.000000
                                                         0.382700       0.000000
                                                         0.120900       0.101619

                          2       1    1s                3.319000       0.606601
                                                         0.905900       0.026060
                                                         0.364300      -0.003002
                                                         0.128500       0.000365

                          2       2    2s                3.319000       0.000000
                                                         0.905900       0.661790
                                                         0.364300       0.000000
                                                         0.128500       0.000000

                          2       3    3s                3.319000      -0.298547
                                                         0.905900       0.092903
                                                         0.364300       0.200079
                                                         0.128500       0.060480

                          2       4    4s                3.319000       0.000000
                                                         0.905900       0.000000
                                                         0.364300       0.000000
                                                         0.128500       0.152963

                          3       1    1dx2              1.097000       1.935401
                                                         0.318000       0.000000
                          3       1    1dxy              1.097000       3.352214
                                                         0.318000       0.000000
                          3       1    1dxz              1.097000       3.352214
                                                         0.318000       0.000000
                          3       1    1dy2              1.097000       1.935401
                                                         0.318000       0.000000
                          3       1    1dyz              1.097000       3.352214
                                                         0.318000       0.000000
                          3       1    1dz2              1.097000       1.935401
                                                         0.318000       0.000000

                          3       2    2dx2              1.097000       0.000000
                                                         0.318000       0.221644
                          3       2    2dxy              1.097000       0.000000
                                                         0.318000       0.383899
                          3       2    2dxz              1.097000       0.000000
                                                         0.318000       0.383899
                          3       2    2dy2              1.097000       0.000000
                                                         0.318000       0.221644
                          3       2    2dyz              1.097000       0.000000
                                                         0.318000       0.383899
                          3       2    2dz2              1.097000       0.000000
                                                         0.318000       0.221644

                          4       1    1fx3              0.761000       0.796288
                          4       1    1fx2y             0.761000       1.780553
                          4       1    1fx2z             0.761000       1.780553
                          4       1    1fxy2             0.761000       1.780553
                          4       1    1fxyz             0.761000       3.084008
                          4       1    1fxz2             0.761000       1.780553
                          4       1    1fy3              0.761000       0.796288
                          4       1    1fy2z             0.761000       1.780553
                          4       1    1fyz2             0.761000       1.780553
                          4       1    1fz3              0.761000       0.796288

     AE Potential information for                                            ALL

       Description:                                       All-electron potential
                                          Krack, Parrinello, PCCP 2, 2105 (2000)

       Gaussian exponent of the core charge distribution:               4.109048
       Electronic configuration (s p d ...):                           4   2   0

  3. Atomic kind: H                                     Number of atoms:       3

     Orbital Basis Set                                                   cc-pVTZ

       Number of orbital shell sets:                                           3
       Number of orbital shells:                                               6
       Number of primitive Cartesian functions:                                8
       Number of Cartesian basis functions:                                   15
       Number of spherical basis functions:                                   14
       Norm type:                                                              2

       Normalised Cartesian orbitals:

                        Set   Shell   Orbital            Exponent    Coefficient

                          1       1    1s               33.870000       0.000000
                                                         5.095000       0.000000
                                                         1.159000       0.000000
                                                         0.325800       0.307343
                                                         0.102700       0.000000

                          1       2    2s               33.870000       0.060718
                                                         5.095000       0.109507
                                                         1.159000       0.161468
                                                         0.325800       0.154871
                                                         0.102700       0.049575

                          1       3    3s               33.870000       0.000000
                                                         5.095000       0.000000
                                                         1.159000       0.000000
                                                         0.325800       0.000000
                                                         0.102700       0.129297

                          2       1    1px               1.407000       2.184277
                                                         0.388000       0.000000
                          2       1    1py               1.407000       2.184277
                                                         0.388000       0.000000
                          2       1    1pz               1.407000       2.184277
                                                         0.388000       0.000000

                          2       2    2px               1.407000       0.000000
                                                         0.388000       0.436495
                          2       2    2py               1.407000       0.000000
                                                         0.388000       0.436495
                          2       2    2pz               1.407000       0.000000
                                                         0.388000       0.436495

                          3       1    1dx2              1.057000       1.813597
                          3       1    1dxy              1.057000       3.141241
                          3       1    1dxz              1.057000       3.141241
                          3       1    1dy2              1.057000       1.813597
                          3       1    1dyz              1.057000       3.141241
                          3       1    1dz2              1.057000       1.813597

     RI Auxiliary Basis Set                                        cc-pVTZ-RIFIT

       Number of orbital shell sets:                                          10
       Number of orbital shells:                                              10
       Number of primitive Cartesian functions:                               10
       Number of Cartesian basis functions:                                   35
       Number of spherical basis functions:                                   30
       Norm type:                                                              2

       Normalised Cartesian orbitals:

                        Set   Shell   Orbital            Exponent    Coefficient

                          1       1    1s                0.289740       0.281460

                          2       1    1s                0.526184       0.440315

                          3       1    1px               0.603822       0.758711
                          3       1    1py               0.603822       0.758711
                          3       1    1pz               0.603822       0.758711

                          4       1    1dx2              1.143973       2.082748
                          4       1    1dxy              1.143973       3.607426
                          4       1    1dxz              1.143973       3.607426
                          4       1    1dy2              1.143973       2.082748
                          4       1    1dyz              1.143973       3.607426
                          4       1    1dz2              1.143973       2.082748

                          5       1    1px               1.180408       1.753802
                          5       1    1py               1.180408       1.753802
                          5       1    1pz               1.180408       1.753802

                          6       1    1fx3              1.806306       5.568458
                          6       1    1fx2y             1.806306      12.451451
                          6       1    1fx2z             1.806306      12.451451
                          6       1    1fxy2             1.806306      12.451451
                          6       1    1fxyz             1.806306      21.566546
                          6       1    1fxz2             1.806306      12.451451
                          6       1    1fy3              1.806306       5.568458
                          6       1    1fy2z             1.806306      12.451451
                          6       1    1fyz2             1.806306      12.451451
                          6       1    1fz3              1.806306       5.568458

                          7       1    1dx2              1.809637       4.647235
                          7       1    1dxy              1.809637       8.049248
                          7       1    1dxz              1.809637       8.049248
                          7       1    1dy2              1.809637       4.647235
                          7       1    1dyz              1.809637       8.049248
                          7       1    1dz2              1.809637       4.647235

                          8       1    1s                1.873089       1.141114

                          9       1    1px               2.372549       4.197195
                          9       1    1py               2.372549       4.197195
                          9       1    1pz               2.372549       4.197195

                         10       1    1s                8.512828       3.551939

       Atomic covalent radius [Angstrom]:                                  0.320

       Atomic van der Waals radius [Angstrom]:                             1.090

     The atoms of this atomic kind are PAW atoms (GAPW):
       Hard Gaussian function radius:                                      1.200
       Rho0 radius:                                                        1.200
       Maximum GTO radius used for PAW projector construction:            24.566

     GAPW Soft Basis Set                                            cc-pVTZ_soft

       Number of orbital shell sets:                                           3
       Number of orbital shells:                                               6
       Number of primitive Cartesian functions:                                7
       Number of Cartesian basis functions:                                   15
       Number of spherical basis functions:                                   14
       Norm type:                                                              2

       Normalised Cartesian orbitals:

                        Set   Shell   Orbital            Exponent    Coefficient

                          1       1    1s                5.095000       0.000000
                                                         1.159000       0.000000
                                                         0.325800       0.307343
                                                         0.102700       0.000000

                          1       2    2s                5.095000       0.109507
                                                         1.159000       0.161468
                                                         0.325800       0.154871
                                                         0.102700       0.049575

                          1       3    3s                5.095000       0.000000
                                                         1.159000       0.000000
                                                         0.325800       0.000000
                                                         0.102700       0.129297

                          2       1    1px               1.407000       2.184277
                                                         0.388000       0.000000
                          2       1    1py               1.407000       2.184277
                                                         0.388000       0.000000
                          2       1    1pz               1.407000       2.184277
                                                         0.388000       0.000000

                          2       2    2px               1.407000       0.000000
                                                         0.388000       0.436495
                          2       2    2py               1.407000       0.000000
                                                         0.388000       0.436495
[...]
 pw_poisson_solve                   226  9.4    2.181    2.441   80.072   80.713
 fft_wrap_pw1pw2                   4600 11.1    0.074    0.113   73.869   74.696
 fft_wrap_pw1pw2_250               3238 12.1    2.235    2.431   69.959   70.889
 tddfpt_apply_coulomb               160  9.0    0.003    0.004   69.203   69.803
 qs_ks_update_qs_env                 66  5.0    0.000    0.001   67.856   67.871
 rebuild_ks_matrix                   66  6.0    0.000    0.000   67.849   67.864
 qs_ks_build_kohn_sham_matrix        66  7.0    0.010    0.011   67.849   67.863
 fft3d_ps                          4600 13.1   21.411   22.891   64.210   65.404
 ps_wavelet_solve                   226 10.4   23.296   33.590   55.846   56.056
 mp_alltoall_z22v                  4600 15.1   37.493   45.903   37.493   45.903
 qs_rho_update_rho_low              228  7.8    0.003    0.003   44.907   44.916
 calculate_rho_elec                 228  8.8    0.497    0.533   39.708   39.717
 integrate_four_center              386  9.8    7.891   15.999   38.224   38.350
 integrate_v_rspace                 226  9.0    0.005    0.006   32.293   32.482
 mp_alltoall_d54                    226 11.4   12.548   31.140   12.548   31.140
 xc_pw_derive                      1359 11.0    0.013    0.016   29.442   30.724
 density_rs2pw                      228  9.8    0.013    0.016   26.334   28.839
 tddfpt_apply_hfx                     8  8.0    0.003    0.004   28.111   28.112
 tddfpt_apply_xc_analytic           160  9.0    0.111    0.138   25.338   25.457
 x_to_yz                           1878 13.7    2.201    2.495   23.431   25.080
 tddft_hfx_matrix                   320  9.0    0.009    0.010   24.177   24.265
 yz_to_x                           1814 14.5    1.652    2.004   17.758   22.620
 transfer_rs2pw                    1140 10.8    0.027    0.047   19.797   22.251
 mp_alltoall_d45                    227 11.4   19.859   22.109   19.859   22.109
 potential_pw2rs                    226 10.0    0.047    0.064   20.737   20.936
 xc_pw_divergence                   226 10.7    0.007    0.009   19.800   20.867
 mp_alltoall_d11v                 14256 11.6   16.755   20.220   16.755   20.220
 transfer_pw2rs                    1131 10.9    0.015    0.020   19.324   19.591
 mp_waitany                       57246 12.8   14.727   16.983   14.727   16.983
 grid_collocate_task_list           228  9.8   12.308   16.691   12.308   16.691
 mp_sync                           2053 11.5    8.933   16.118    8.933   16.118
 xc_calc_2nd_deriv_analytical      1120 10.1    0.776    0.914   14.854   14.932
 hfx_ks_matrix                       66  8.0    0.002    0.003   14.061   14.103
 transfer_rs2pw_250                 456 11.8    3.444    3.830   10.583   13.753
 prepare_gapw_den                   227  8.7    0.005    0.005   13.152   13.294
 qs_vxc_create                       66  8.0    0.001    0.001   11.810   11.820
 xc_vxc_pw_create                    66  9.0    0.186    0.219   11.809   11.819
 rs_gather_matrices                 226 10.0    0.023    0.032   11.149   11.611
 grid_integrate_task_list           226 10.0    0.401   11.234    0.401   11.234
 integrate_four_center_main         386 10.8    0.169    0.434    9.617   11.078
 transfer_pw2rs_250                 453 11.7    3.392    3.757   10.712   11.027
 integrate_four_center_bin        72920 11.8    9.448   10.750    9.448   10.750
 integrate_vhg0_rspace              226  9.4    0.293    0.379   10.437   10.509
 put_rho0_on_grid                   227  9.7    0.530    0.699   10.071   10.213
 sum_up_and_integrate                66  8.0    0.001    0.001    9.141    9.172
 mp_sum_dm                        10325 10.0    8.642    8.858    8.642    8.858
 mp_waitall_1                    458354 13.2    7.358    8.808    7.358    8.808
 cp_dbcsr_sm_fm_multiply           1006  8.6    0.022    0.024    7.613    7.716
 calculate_xc_2nd_deriv_atom        160  9.0    0.083    2.259    0.220    6.820
 mp_sum_d                          8401  7.3    4.286    6.744    4.286    6.744
 gaVxcgb_GC                         678  9.7    0.155    5.785    0.155    5.785
 xc_rho_set_and_dset_create          67 10.0    0.155    0.195    5.461    5.716
 dbcsr_complete_redistribute       3355 10.5    0.144    0.197    5.174    5.273
 transfer_rs2pw_30                  228 11.8    2.148    2.243    4.947    5.201
 calculate_rho_atom_coeff           228  8.8    0.066    0.127    5.196    5.197
 gspace_mixing                       65  5.0    0.141    0.152    5.104    5.104
 transfer_pw2rs_30                  226 12.0    2.066    2.215    4.697    5.016
 cp_fm_syevd                        116  7.2    0.001    0.001    4.965    4.973
 cp_fm_redistribute_end             116  8.2    2.464    4.810    2.473    4.817
 cp_fm_syevd_base                   116  8.2    2.337    4.685    2.337    4.685
 calc_screening_functions             1 10.0    2.622    2.734    4.446    4.634
 qs_scf_new_mos                      66  5.0    0.001    0.001    4.515    4.523
 mp_sendrecv_dv                   98040 12.8    3.714    3.998    3.714    3.998
 eigensolver_symm                    66  6.0    0.002    0.002    3.835    3.841
 mp_isendrecv_dv                 263160 12.3    1.650    3.809    1.650    3.809
 powell_optimize                1381135 11.0    3.412    3.752    3.412    3.752
 broyden_mixing                      65  6.0    3.515    3.637    3.652    3.726
 copy_dbcsr_to_fm                  1094  9.3    0.015    0.018    3.523    3.661
 transfer_rs2pw_90                  228 11.8    0.569    0.726    2.771    3.552
 pw_scatter_p                      2330 12.8    2.984    3.548    2.984    3.548
 copy_fm_to_dbcsr                  2259  9.5    0.011    0.012    3.398    3.500
 dbcsr_multiply_generic            1392 10.3    0.064    0.071    2.995    3.136
 pw_gather_p                       2270 13.3    2.506    2.995    2.506    2.995
 cp2k_distribution_to_z_slices      226 10.4    1.055    1.160    2.332    2.849
 calculate_rho_atom                 908  9.7    1.451    2.836    1.451    2.836
 transfer_pw2rs_90                  226 12.0    0.531    0.600    2.389    2.702
 fft_wrap_pw1pw2_90                 454 11.9    0.068    0.114    2.390    2.681
 integrate_four_center_dist_KS      386 10.8    0.167    0.180    2.639    2.645
 rs_grid_zero                      1133 11.9    2.497    2.636    2.497    2.636
 mp_alltoall_i11v                 11160 11.4    2.565    2.568    2.565    2.568
 integrate_four_center_getP         386 10.8    0.186    0.203    2.488    2.498
 calc_pair_dist_radii                 1 10.0    0.743    0.791    2.332    2.482
 pw_derive                         2037 11.8    2.226    2.405    2.226    2.405
 create_qs_kind_set                   1  2.0    0.000    0.000    2.355    2.356
 read_qs_kind                         4  3.0    1.312    1.348    2.355    2.356
 calculate_vxc_atom                  66  8.0    0.050    0.496    2.285    2.287
 cp_dbcsr_sm_fm_multiply_core      1006  9.6    0.003    0.003    2.084    2.211
 mp_sum_dv                        25723  8.8    1.893    2.043    1.893    2.043
 multiply_cannon                   1392 11.3    0.174    0.180    1.808    1.962
 tddfpt_print_nto_analysis            1  6.0    0.002    0.003    1.860    1.861
 dbcsr_desymmetrize_deep           1095 10.3    0.031    0.038    1.658    1.792
 pw_copy                           3075 11.0    1.542    1.676    1.542    1.676
 cp_dbcsr_plus_fm_fm_t              226  8.4    0.004    0.004    1.602    1.625
 tddfpt_orthonormalize_psi1_psi       9  6.9    0.019    0.021    1.625    1.625
 pw_copy_to_array                  2270 13.3    1.079    1.603    1.079    1.603
 transfer_pw2rs_10                  226 12.0    0.542    0.654    1.511    1.591
 multiply_cannon_loop              1392 12.3    0.326    0.343    1.391    1.540
 transfer_rs2pw_10                  228 11.8    0.553    0.594    1.469    1.497
 mp_isend_dv                     147514 13.8    0.910    1.437    0.910    1.437
 xc_functional_eval                1423 10.9    0.001    0.004    0.905    1.413
 pbe_lda_eval                      1423 11.9    0.904    1.409    0.904    1.409
 pw_poisson_set                     227 10.4    0.006    0.007    1.343    1.361
 tddfpt_apply_energy_diff             8  8.0    0.001    0.001    1.341    1.341
 qs_energies_init_hamiltonians        1  3.0    0.000    0.000    1.322    1.322
 parallel_gemm_fm                  1493  8.2    0.002    0.002    1.300    1.319
 parallel_gemm_fm_gemm             1493  9.2    0.002    0.002    1.298    1.317
 cp_fm_gemm                        1493 10.2    1.296    1.315    1.296    1.315
 build_core_hamiltonian_matrix        1  4.0    0.000    0.000    1.310    1.310
 overlap_condnum                      1  5.0    0.000    0.000    1.305    1.308
 cp_fm_geeig                         20  7.0    0.001    0.001    1.261    1.263
 arnoldi_conjugate_gradient           5  6.0    0.027    0.032    1.164    1.164
 mp_irecv_dm3                      8178 12.8    0.539    1.114    0.539    1.114
 Vh_1c_gg_integrals                 226  9.4    0.032    0.406    0.580    1.110
 tddfpt_compute_residual_vects        7  7.0    0.001    0.001    1.076    1.077
 mp_isend_dm3                      8178 12.8    0.482    1.074    0.482    1.074
 parser_read_line                279472  4.0    0.094    0.102    1.043    1.065
 pw_integral_ab_c1d_c1d_gs          226 10.4    0.735    0.743    0.961    1.052
 mp_alltoall_z11v                   908 14.9    0.968    1.007    0.968    1.007
 fft_wrap_pw1pw2_30                 454 11.9    0.013    0.014    0.942    0.974
 parser_read_line_low               304  5.0    0.087    0.411    0.948    0.974
 pw_axpy                           2428 10.8    0.840    0.959    0.840    0.959
 broadcast_input_information        304  6.0    0.210    0.232    0.861    0.923
 make_m2s                          2784 11.3    0.055    0.060    0.814    0.883
 pw_copy_from_array                2330 12.8    0.695    0.871    0.695    0.871
 mp_alltoall_i22                   4450 11.4    0.648    0.865    0.648    0.865
 hybrid_alltoall_any               3879 13.5    0.036    0.047    0.810    0.863
 mp_max_i                           697  4.9    0.327    0.834    0.327    0.834
 pw_zero                           2482 10.6    0.714    0.806    0.714    0.806
 make_images                       2784 12.3    0.160    0.166    0.664    0.721
 dbcsr_sym_matrix_vector_mult      4035  7.0    0.064    0.068    0.619    0.713
 yz_to_xz                           452 14.0    0.041    0.046    0.630    0.662
 offload_free_buffer                234 10.2    0.541    0.614    0.541    0.614
 pw_poisson_rebuild                 226 10.4    0.000    0.000    0.587    0.611
 ps_wavelet_create                    1 10.0    0.000    0.000    0.587    0.610
 RS_z_slice_distribution              1 11.0    0.499    0.569    0.587    0.610
 mp_sum_l                          5380 10.5    0.494    0.577    0.494    0.577
 fft_wrap_pw1pw2_10                 454 11.9    0.004    0.005    0.504    0.511
 mp_bcast_am_src                    304  7.0    0.365    0.439    0.395    0.495
 multiply_cannon_metrocomm3       50112 13.3    0.082    0.085    0.260    0.478
 calculate_dm_sparse                 66  6.0    0.001    0.001    0.440    0.458
 mp_bcast_i_src                    1216  7.0    0.244    0.449    0.244    0.449
 integrate_four_center_load         386 10.8    0.001    0.002    0.351    0.425
 hfx_load_balance                     1 11.0    0.000    0.000    0.350    0.424
 update_ks_atom                     226  8.7    0.049    0.099    0.328    0.420
 xz_to_yz                           456 13.8    0.027    0.032    0.406    0.413
 xc_2nd_deriv_of_r                  960 10.0    0.002    0.069    0.010    0.408
 hfx_load_balance_range               1 12.0    0.000    0.000    0.324    0.399
 dbcsr_finalize                   12979 11.3    0.041    0.108    0.185    0.397
 mp_rank_compare                   4600 14.1    0.376    0.391    0.376    0.391
 multiply_cannon_metrocomm4       47328 13.3    0.140    0.147    0.292    0.386
 multiply_cannon_metrocomm1       50112 13.3    0.058    0.061    0.183    0.381
 init_scf_run                         1  3.0    0.000    0.001    0.369    0.370
 dbcsr_add_d                       6101  7.0    0.006    0.006    0.053    0.361
 dbcsr_add_anytype                 6101  8.0    0.007    0.048    0.048    0.355
 cp_fm_trace_a1b1t1_aa            13090  8.0    0.063    0.067    0.349    0.353
 mp_bcast_dm                       6780  9.7    0.279    0.352    0.279    0.352
 scf_env_initial_rho_setup            1  4.0    0.000    0.000    0.308    0.309
 make_images_sizes                 2784 13.3    0.003    0.004    0.272    0.288
 mp_alltoall_i44                   2784 14.3    0.269    0.285    0.269    0.285
 dbcsr_col_vec_to_rep_row          4035  8.0    0.028    0.032    0.202    0.275
 prepare_dr1dr                     1120 11.1    0.239    0.269    0.239    0.269
 qs_init_subsys                       1  2.0    0.004    0.004    0.267    0.268
 multiply_cannon_metrocomm2       45936 13.3    0.137    0.143    0.247    0.264
 tddfpt_construct_ground_state_       1  6.0    0.000    0.000    0.257    0.260
 multiply_cannon_multrec          50112 13.3    0.077    0.248    0.083    0.255
 qs_env_setup                         1  3.0    0.000    0.000    0.247    0.252
 scale_and_distribute               452 11.4    0.233    0.251    0.233    0.251
 qs_env_rebuild_pw_env                2  3.5    0.000    0.000    0.246    0.251
 pw_env_rebuild                       1  5.0    0.001    0.001    0.245    0.250
 dbcsr_rep_row_to_rep_col_vec      4035  8.0    0.020    0.024    0.106    0.247
 mp_cart_sub                       2192 11.3    0.244    0.246    0.244    0.246
 rs_scatter_matrices                228  9.8    0.003    0.006    0.226    0.235
 calculate_rho0_atom                908  9.7    0.228    0.231    0.228    0.231
 dbcsr_merge_all                  11179 12.4    0.080    0.159    0.105    0.214
 mp_irecv_dv                     148286 13.8    0.117    0.198    0.117    0.198
 dbcsr_create_new                 45050 10.9    0.140    0.146    0.181    0.191
 mp_cart_create                    2003 10.6    0.164    0.179    0.166    0.181
 mp_allgather_i34                  1392 12.3    0.149    0.179    0.149    0.179
 make_images_data                  2784 13.3    0.036    0.048    0.091    0.177
 mp_bcast_dv                       4151  9.0    0.089    0.173    0.089    0.173
 cp_fm_redistribute_start           116  8.2    0.122    0.127    0.154    0.169
 dbcsr_iterator_start             71209  9.9    0.084    0.119    0.102    0.151
 pw_grid_setup                        4  6.0    0.000    0.000    0.143    0.147
 pw_grid_setup_internal               4  7.0    0.003    0.004    0.142    0.147
 dbcsr_copy                       19668  8.1    0.068    0.076    0.123    0.134
 tddfpt_compute_ritz_vects            8  7.0    0.006    0.006    0.129    0.130
 cp_fm_triangular_multiply           60  8.0    0.114    0.116    0.114    0.116
 cp_fm_symm                          66  7.0    0.109    0.115    0.109    0.115
 vxc_of_r_new                       396  9.0    0.000    0.017    0.003    0.113
 pw_scale                           584  9.5    0.094    0.111    0.094    0.111
 create_kernel_env                    1  6.0    0.000    0.000    0.102    0.110
 xc_prep_2nd_deriv                    1  7.0    0.000    0.000    0.102    0.110
 cp_fm_cholesky_decompose            20  8.0    0.109    0.110    0.109    0.110
 dbcsr_special_finalize            6960 13.3    0.027    0.029    0.079    0.104
 cube_transpose_2                   456 13.8    0.009    0.010    0.093    0.100
 dbcsr_iterator_stop              71209  9.9    0.062    0.083    0.075    0.100
 rs_grid_create                     232 10.3    0.001    0.002    0.013    0.098
 compute_max_radius                   1  6.0    0.040    0.097    0.040    0.097
 offload_create_buffer              234 11.3    0.012    0.096    0.012    0.096
 tddfpt_orthogonalize_psi1_psi0       9  6.9    0.000    0.000    0.080    0.091
 cube_transpose_1                   452 14.0    0.008    0.009    0.081    0.087
 mp_isend_iv                     101464 14.3    0.077    0.086    0.077    0.086
 cp_fm_triangular_invert             20  8.0    0.085    0.086    0.085    0.086
 dbcsr_work_create                19234 12.4    0.032    0.053    0.048    0.083
 mp_bcast_iv                        329  7.5    0.030    0.081    0.030    0.081
 copy_fm_to_dbcsr_bc               2259 10.5    0.026    0.028    0.074    0.079
 dbcsr_data_release              220207 12.0    0.055    0.073    0.055    0.073
 dbcsr_destroy                    36918 10.6    0.046    0.049    0.066    0.072
 cp_fm_power                          1  6.0    0.000    0.001    0.070    0.070
 dbcsr_work_destroy_all           19234 13.4    0.029    0.051    0.040    0.070
 pw_grid_sort                         4  8.0    0.043    0.045    0.067    0.069
 dbcsr_merge_single_wm             6960 14.3    0.035    0.042    0.043    0.067
 dbcsr_make_images_dense            772 11.7    0.014    0.015    0.039    0.066
 dbcsr_data_new                  129704 12.4    0.052    0.064    0.052    0.064
 mixing_init                          1  5.0    0.041    0.060    0.059    0.060
 scf_post_calculation_gpw             1  3.0    0.000    0.000    0.060    0.060
 write_available_results              1  4.0    0.000    0.000    0.059    0.060
 write_mo_free_results                1  5.0    0.003    0.004    0.059    0.060
 rs_grid_create_descriptor            4  6.0    0.001    0.001    0.059    0.060
 mp_cart_rank                    195732 10.9    0.052    0.058    0.052    0.058
 create_fast_col_vec_access        8070  8.0    0.033    0.038    0.051    0.057
 create_fast_row_vec_access        8070  8.0    0.033    0.037    0.051    0.057
 mp_bcast_iv_src                    304  7.0    0.013    0.055    0.013    0.055
 cp_fm_write_unformatted             24  7.0    0.027    0.044    0.028    0.055
 tddfpt_is_nonorthogonal_psi1_p       7  7.0    0.000    0.001    0.052    0.052
 mp_irecv_iv                     102470 14.3    0.041    0.048    0.041    0.048
 dbcsr_make_dense_low              1930 12.7    0.010    0.010    0.015    0.041
 setup_buffer_matrices             2784 12.3    0.011    0.012    0.035    0.040
 write_mo_set_to_restart             66  5.0    0.001    0.006    0.010    0.038
 mp_maxloc_dv                      1251  1.0    0.033    0.037    0.033    0.037
 write_mo_set_low                     4  6.0    0.000    0.000    0.009    0.036
 mp_max_d                           208  8.3    0.023    0.036    0.023    0.036
 dbcsr_sym_matrix_vector_mult_l    4035  8.0    0.016    0.023    0.029    0.036
 dbcsr_scale_anytype               6103  9.0    0.012    0.014    0.031    0.034
 dbcsr_iterator_seek              71209 10.9    0.017    0.032    0.017    0.032
 tddfpt_dipole_operator               1  5.0    0.000    0.001    0.030    0.031
 -------------------------------------------------------------------------------

 The number of warnings for this run is : 1
 
 -------------------------------------------------------------------------------
  **** **** ******  **  PROGRAM ENDED AT                 2025-04-02 22:36:28.818
 ***** ** ***  *** **   PROGRAM RAN ON                              i08r03c04s04
 **    ****   ******    PROGRAM RAN BY                                   di38fab
 ***** **    ** ** **   PROGRAM PROCESS ID                               1656622
  **** **  *******  **  PROGRAM STOPPED IN /hppfs/scratch/04/di38fab/07_MOL_non_
                                           aug/05_MOL_non_aug/05_MOL/aUKBqsEOTmq
                                           69kFe5R_nOg/5k_set_final_qzvp/WEBNUO0
                                           1/cc-pVTZ/TDDFT
