 DBCSR| CPU Multiplication driver                                           XSMM (U)
 DBCSR| Multrec recursion limit                                              512 (U)
 DBCSR| Multiplication stack size                                           1000 (D)
 DBCSR| Maximum elements for images                                    UNLIMITED (U)
 DBCSR| Multiplicative factor virtual images                                   1 (U)
 DBCSR| Use multiplication densification                                       T (D)
 DBCSR| Multiplication size stacks                                             3 (U)
 DBCSR| Use memory pool for CPU allocation                                     F (U)
 DBCSR| Number of 3D layers                                               SINGLE (U)
 DBCSR| Use MPI memory allocation                                              F (U)
 DBCSR| Use RMA algorithm                                                      F (U)
 DBCSR| Use Communication thread                                               T (U)
 DBCSR| Communication thread load                                             60 (D)
 DBCSR| MPI: My process id                                                     0
 DBCSR| MPI: Number of processes                                              32
 DBCSR| OMP: Current number of threads                                         8
 DBCSR| OMP: Max number of threads                                             8
 DBCSR| Split modifier for TAS multiplication algorithm                  1.0E+00 (U)


  **** **** ******  **  PROGRAM STARTED AT               2025-06-23 14:21:07.547
 ***** ** ***  *** **   PROGRAM STARTED ON                 n2cn0189.ab2021.local
 **    ****   ******    PROGRAM STARTED BY                              metdyn02
 ***** **    ** ** **   PROGRAM PROCESS ID                                490803
  **** **  *******  **  PROGRAM STARTED IN /scratch/hpc-prf-metdyn/metdyn02_Remi
                                           /10_MOL/05_MOL/aUKBqsEOTmq69kFe5R_nOg
                                           /5k_set_final_qzvp/JUTXUR/mini-SZV/TD
                                           DFT/RILIM

 CP2K| version string:                 CP2K version 2025.1 (Development Version)
 CP2K| source code revision number:                                  git:32ddf85
 CP2K| cp2kflags: omp libint fftw3 libxc libgrpp elpa parallel scalapack mpi_f08
 CP2K|             cosma xsmm plumed2 spglib libvori libbqb libvdwxc hdf5
 CP2K| is freely available from                            https://www.cp2k.org/
 CP2K| Program compiled at                         Mon May 19 11:32:37 CEST 2025
 CP2K| Program compiled on                                              n2login1
 CP2K| Program compiled for                                                local
 CP2K| Data directory path    /opt/software/pc2/EB-SW/software/CP2K/2024.1-foss-
 CP2K| Input file name                                                    GW.inp

 GLOBAL| Force Environment number                                              1
 GLOBAL| Basis set file name            /scratch/hpc-prf-metdyn/metdyn02_Remi/BA
 GLOBAL| Potential file name            /pc2/groups/hpc-prf-metdyn/metdyn02_Remi
 GLOBAL| MM Potential file name                                     MM_POTENTIAL
 GLOBAL| Coordinate file name                                      __STD_INPUT__
 GLOBAL| Method name                                                        CP2K
 GLOBAL| Project name                                                       MoS2
 GLOBAL| Run type                                                         ENERGY
 GLOBAL| FFT library                                                       FFTW3
 GLOBAL| Diagonalization library                                            ELPA
 GLOBAL| Cholesky decomposition library                                ScaLAPACK
 GLOBAL| DGEMM library                                                      BLAS
 GLOBAL| Minimum number of eigenvectors for ELPA usage                        16
 GLOBAL| Orthonormality check for eigenvectors                          DISABLED
 GLOBAL| Matrix multiplication library                                     COSMA
 GLOBAL| All-to-all communication in single precision                          F
 GLOBAL| FFTs using library dependent lengths                                  F
 GLOBAL| Grid backend                                                       AUTO
 GLOBAL| Global print level                                               MEDIUM
 GLOBAL| MPI I/O enabled                                                       T
 GLOBAL| Total number of message passing processes                            32
 GLOBAL| Number of threads for this process                                    8
 GLOBAL| This output is from process                                           0
 GLOBAL| OpenMP stack size per thread (OMP_STACKSIZE)                    default
 GLOBAL| CPU model name                          AMD EPYC 7763 64-Core Processor
 GLOBAL| CPUID                                                              1002

 MEMORY| system memory details [Kb]
 MEMORY|                        rank 0           min           max       average
 MEMORY| MemTotal            263897616     263897556     263897616     263897594
 MEMORY| MemFree             251789916     251602940     252509928     251927855
 MEMORY| Buffers                124332        118120        125276        123114
 MEMORY| Cached                7138456       6552544       7309440       6997832
 MEMORY| Slab                  1482472       1374944       1854188       1505394
 MEMORY| SReclaimable           331888        250100        691216        373173
 MEMORY| MemLikelyFree       259384592     259284240     259536624     259421974


 *** Fundamental physical constants (SI units) ***

 *** Literature: B. J. Mohr and B. N. Taylor,
 ***             CODATA recommended values of the fundamental physical
 ***             constants: 2006, Web Version 5.1
 ***             http://physics.nist.gov/constants

 Speed of light in vacuum [m/s]                             2.99792458000000E+08
 Magnetic constant or permeability of vacuum [N/A**2]       1.25663706143592E-06
 Electric constant or permittivity of vacuum [F/m]          8.85418781762039E-12
 Planck constant (h) [J*s]                                  6.62606896000000E-34
 Planck constant (h-bar) [J*s]                              1.05457162825177E-34
 Elementary charge [C]                                      1.60217648700000E-19
 Electron mass [kg]                                         9.10938215000000E-31
 Electron g factor [ ]                                     -2.00231930436220E+00
 Proton mass [kg]                                           1.67262163700000E-27
 Fine-structure constant                                    7.29735253760000E-03
 Rydberg constant [1/m]                                     1.09737315685270E+07
 Avogadro constant [1/mol]                                  6.02214179000000E+23
 Boltzmann constant [J/K]                                   1.38065040000000E-23
 Atomic mass unit [kg]                                      1.66053878200000E-27
 Bohr radius [m]                                            5.29177208590000E-11

 *** Conversion factors ***

 [u] -> [a.u.]                                              1.82288848426455E+03
 [Angstrom] -> [Bohr] = [a.u.]                              1.88972613288564E+00
 [a.u.] = [Bohr] -> [Angstrom]                              5.29177208590000E-01
 [a.u.] -> [s]                                              2.41888432650478E-17
 [a.u.] -> [fs]                                             2.41888432650478E-02
 [a.u.] -> [J]                                              4.35974393937059E-18
 [a.u.] -> [N]                                              8.23872205491840E-08
 [a.u.] -> [K]                                              3.15774647902944E+05
 [a.u.] -> [kJ/mol]                                         2.62549961709828E+03
 [a.u.] -> [kcal/mol]                                       6.27509468713739E+02
 [a.u.] -> [Pa]                                             2.94210107994716E+13
 [a.u.] -> [bar]                                            2.94210107994716E+08
 [a.u.] -> [atm]                                            2.90362800883016E+08
 [a.u.] -> [eV]                                             2.72113838565563E+01
 [a.u.] -> [Hz]                                             6.57968392072181E+15
 [a.u.] -> [1/cm] (wave numbers)                            2.19474631370540E+05
 [a.u./Bohr**2] -> [1/cm]                                   5.14048714338585E+03
 

 CELL_TOP| Volume [angstrom^3]:                                     27000.000000
 CELL_TOP| Vector a [angstrom    30.000     0.000     0.000   |a| =    30.000000
 CELL_TOP| Vector b [angstrom     0.000    30.000     0.000   |b| =    30.000000
 CELL_TOP| Vector c [angstrom     0.000     0.000    30.000   |c| =    30.000000
 CELL_TOP| Angle (b,c), alpha [degree]:                                90.000000
 CELL_TOP| Angle (a,c), beta  [degree]:                                90.000000
 CELL_TOP| Angle (a,b), gamma [degree]:                                90.000000
 CELL_TOP| Numerically orthorhombic:                                         YES
 CELL_TOP| Periodicity                                                      NONE

 GENERATE|  Preliminary Number of Bonds generated:                             0
 GENERATE|  Achieved consistency in connectivity generation.

 CELL| Volume [angstrom^3]:                                         27000.000000
 CELL| Vector a [angstrom]:      30.000     0.000     0.000   |a| =    30.000000
 CELL| Vector b [angstrom]:       0.000    30.000     0.000   |b| =    30.000000
 CELL| Vector c [angstrom]:       0.000     0.000    30.000   |c| =    30.000000
 CELL| Angle (b,c), alpha [degree]:                                    90.000000
 CELL| Angle (a,c), beta  [degree]:                                    90.000000
 CELL| Angle (a,b), gamma [degree]:                                    90.000000
 CELL| Numerically orthorhombic:                                             YES
 CELL| Periodicity                                                          NONE

 CELL_REF| Volume [angstrom^3]:                                     27000.000000
 CELL_REF| Vector a [angstrom    30.000     0.000     0.000   |a| =    30.000000
 CELL_REF| Vector b [angstrom     0.000    30.000     0.000   |b| =    30.000000
 CELL_REF| Vector c [angstrom     0.000     0.000    30.000   |c| =    30.000000
 CELL_REF| Angle (b,c), alpha [degree]:                                90.000000
 CELL_REF| Angle (a,c), beta  [degree]:                                90.000000
 CELL_REF| Angle (a,b), gamma [degree]:                                90.000000
 CELL_REF| Numerically orthorhombic:                                         YES
 CELL_REF| Periodicity                                                      NONE

 *******************************************************************************
 *******************************************************************************
 **                                                                           **
 **     #####                         ##              ##                      **
 **    ##   ##            ##          ##              ##                      **
 **   ##     ##                       ##            ######                    **
 **   ##     ##  ##   ##  ##   #####  ##  ##   ####   ##    #####    #####    **
 **   ##     ##  ##   ##  ##  ##      ## ##   ##      ##   ##   ##  ##   ##   **
 **   ##  ## ##  ##   ##  ##  ##      ####     ###    ##   ######   ######    **
 **    ##  ###   ##   ##  ##  ##      ## ##      ##   ##   ##       ##        **
 **     #######   #####   ##   #####  ##  ##  ####    ##    #####   ##        **
 **           ##                                                    ##        **
 **                                                                           **
 **                                                ... make the atoms dance   **
 **                                                                           **
 **            Copyright (C) by CP2K developers group (2000-2025)             **
 **                      J. Chem. Phys. 152, 194103 (2020)                    **
 **                                                                           **
 *******************************************************************************

 DFT| Spin restricted Kohn-Sham (RKS) calculation                            RKS
 DFT| Multiplicity                                                             1
 DFT| Number of spin states                                                    1
 DFT| Charge                                                                   0
 DFT| Self-interaction correction (SIC)                                       NO
 DFT| Cutoffs: density                                              1.000000E-10
 DFT|          gradient                                             1.000000E-10
 DFT|          tau                                                  1.000000E-10
 DFT|          cutoff_smoothing_range                               0.000000E+00
 DFT| XC density smoothing                                                  NONE
 DFT| XC derivatives                                                          PW

 FUNCTIONAL| PBE:
 FUNCTIONAL| J.P.Perdew, K.Burke, M.Ernzerhof, Phys. Rev. Letter, vol. 77, n 18,
 FUNCTIONAL|  pp. 3865-3868, (1996)sx=0.750sc=1.000{spin unpolarized}           


 QS| Method:                                                                GAPW
 QS| Density plane wave grid type                        NON-SPHERICAL FULLSPACE
 QS| Number of grid levels:                                                    4
 QS| Density cutoff [a.u.]:                                                250.0
 QS| Multi grid cutoff [a.u.]: 1) grid level                               250.0
 QS|                           2) grid level                                83.3
 QS|                           3) grid level                                27.8
 QS|                           4) grid level                                 9.3
 QS| Grid level progression factor:                                          3.0
 QS| Relative density cutoff [a.u.]:                                        50.0
 QS| Interaction thresholds: eps_pgf_orb:                                1.0E-12
 QS|                         eps_filter_matrix:                          0.0E+00
 QS|                         eps_core_charge:                            1.0E-14
 QS|                         eps_rho_gspace:                             1.0E-12
 QS|                         eps_rho_rspace:                             1.0E-12
 QS|                         eps_gvg_rspace:                             1.0E-06
 QS|                         eps_ppl:                                    1.0E-02
 QS|                         eps_ppnl:                                   1.0E-08
 QS| GAPW|      One center basis from orbital basis primitives
 QS| GAPW|                   eps_fit:                                    1.0E-04
 QS| GAPW|                   eps_iso:                                    1.0E-12
 QS| GAPW|                   eps_svd:                                    1.0E-08
 QS| GAPW|                   eps_cpc:                                    1.0E-12
 QS| GAPW|   atom-r-grid: quadrature:                                     GC_LOG
 QS| GAPW|      atom-s-grid:  max l :                                          2
 QS| GAPW|      max_l_rho0 :                                                   2


 ATOMIC KIND INFORMATION

  1. Atomic kind: C                                     Number of atoms:       6

     Orbital Basis Set                                    aug-SZV-MOLOPT-ae-mini

       Number of orbital shell sets:                                           2
       Number of orbital shells:                                               5
       Number of primitive Cartesian functions:                                7
       Number of Cartesian basis functions:                                    9
       Number of spherical basis functions:                                    9
       Norm type:                                                              2

       Normalised Cartesian orbitals:

                        Set   Shell   Orbital            Exponent    Coefficient

                          1       1    2s                0.114558       0.000000
                                                         0.222289       0.161536
                                                         0.683483       0.214036
                                                         2.941249      -0.160017

                          1       2    3s                0.114558       0.000272
                                                         0.222289       0.256636
                                                         0.683483      -0.079244
                                                         2.941249       0.000032

                          1       3    3px               0.114558       0.000000
                                                         0.222289       0.085276
                                                         0.683483       0.538304
                                                         2.941249       0.856044
                          1       3    3py               0.114558       0.000000
                                                         0.222289       0.085276
                                                         0.683483       0.538304
                                                         2.941249       0.856044
                          1       3    3pz               0.114558       0.000000
                                                         0.222289       0.085276
                                                         0.683483       0.538304
                                                         2.941249       0.856044

                          1       4    4px               0.114558      -0.035043
                                                         0.222289      -0.159067
                                                         0.683483       0.106927
                                                         2.941249      -0.036832
                          1       4    4py               0.114558      -0.035043
                                                         0.222289      -0.159067
                                                         0.683483       0.106927
                                                         2.941249      -0.036832
                          1       4    4pz               0.114558      -0.035043
                                                         0.222289      -0.159067
                                                         0.683483       0.106927
                                                         2.941249      -0.036832

                          2       1    1s               71.616837       2.707801
                                                        13.045096       2.618883
                                                         3.530512       0.816191

     RI Auxiliary Basis Set             RI_aug-SZV-MOLOPT-ae-mini_N_RI_055_s_p_d

       Number of orbital shell sets:                                          19
       Number of orbital shells:                                              19
       Number of primitive Cartesian functions:                               19
       Number of Cartesian basis functions:                                   61
       Number of spherical basis functions:                                   55
       Norm type:                                                              2

       Normalised Cartesian orbitals:

                        Set   Shell   Orbital            Exponent    Coefficient

                          1       1    1s                0.286395       0.279019

                          2       1    8px               0.286395       0.298639
                          2       1    8py               0.286395       0.298639
                          2       1    8pz               0.286395       0.298639

                          3       1   14dx2              0.286395       0.184544
                          3       1   14dxy              0.286395       0.319639
                          3       1   14dxz              0.286395       0.319639
                          3       1   14dy2              0.286395       0.184544
                          3       1   14dyz              0.286395       0.319639
                          3       1   14dz2              0.286395       0.184544

                          4       1    2s                0.459764       0.397934

                          5       1    9px               0.505415       0.607436
                          5       1    9py               0.505415       0.607436
                          5       1    9pz               0.505415       0.607436

                          6       1   15dx2              0.505415       0.498648
                          6       1   15dxy              0.505415       0.863684
                          6       1   15dxz              0.505415       0.863684
                          6       1   15dy2              0.505415       0.498648
                          6       1   15dyz              0.505415       0.863684
                          6       1   15dz2              0.505415       0.498648

                          7       1    3s                0.738081       0.567529

                          8       1   10px               0.891931       1.235533
                          8       1   10py               0.891931       1.235533
                          8       1   10pz               0.891931       1.235533

                          9       1   16dx2              0.891931       1.347378
                          9       1   16dxy              0.891931       2.333728
                          9       1   16dxz              0.891931       2.333728
                          9       1   16dy2              0.891931       1.347378
                          9       1   16dyz              0.891931       2.333728
                          9       1   16dz2              0.891931       1.347378

                         10       1    4s                1.184876       0.809403

                         11       1   11px               1.574035       2.513091
                         11       1   11py               1.574035       2.513091
                         11       1   11pz               1.574035       2.513091

                         12       1   17dx2              1.574035       3.640699
                         12       1   17dxy              1.574035       6.305876
                         12       1   17dxz              1.574035       6.305876
                         12       1   17dy2              1.574035       3.640699
                         12       1   17dyz              1.574035       6.305876
                         12       1   17dz2              1.574035       3.640699

                         13       1    5s                1.902139       1.154361

                         14       1   12px               2.777778       5.111660
                         14       1   12py               2.777778       5.111660
                         14       1   12pz               2.777778       5.111660

                         15       1   18dx2              2.777778       9.837395
                         15       1   18dxy              2.777778      17.038868
                         15       1   18dxz              2.777778      17.038868
                         15       1   18dy2              2.777778       9.837395
                         15       1   18dyz              2.777778      17.038868
                         15       1   18dz2              2.777778       9.837395

                         16       1    6s                3.053594       1.646337

                         17       1    7s                4.902082       2.347986

                         18       1   13px               4.902082      10.397185
                         18       1   13py               4.902082      10.397185
                         18       1   13pz               4.902082      10.397185

                         19       1   19dx2              4.902082      26.581250
                         19       1   19dxy              4.902082      46.040076
                         19       1   19dxz              4.902082      46.040076
                         19       1   19dy2              4.902082      26.581250
                         19       1   19dyz              4.902082      46.040076
                         19       1   19dz2              4.902082      26.581250

       Atomic covalent radius [Angstrom]:                                  0.770

       Atomic van der Waals radius [Angstrom]:                             1.700

     The atoms of this atomic kind are PAW atoms (GAPW):
       Hard Gaussian function radius:                                      1.512
       Rho0 radius:                                                        1.512
       Maximum GTO radius used for PAW projector construction:            24.566

     GAPW Soft Basis Set                             aug-SZV-MOLOPT-ae-mini_soft

       Number of orbital shell sets:                                           2
       Number of orbital shells:                                               5
       Number of primitive Cartesian functions:                                5
       Number of Cartesian basis functions:                                    9
       Number of spherical basis functions:                                    9
       Norm type:                                                              2

       Normalised Cartesian orbitals:

                        Set   Shell   Orbital            Exponent    Coefficient

                          1       1    2s                0.114558       0.000000
                                                         0.222289       0.161536
                                                         0.683483       0.214036
                                                         2.941249      -0.160017

                          1       2    3s                0.114558       0.000272
                                                         0.222289       0.256636
                                                         0.683483      -0.079244
                                                         2.941249       0.000032

                          1       3    3px               0.114558       0.000000
                                                         0.222289       0.085276
                                                         0.683483       0.538304
                                                         2.941249       0.856044
                          1       3    3py               0.114558       0.000000
                                                         0.222289       0.085276
                                                         0.683483       0.538304
                                                         2.941249       0.856044
                          1       3    3pz               0.114558       0.000000
                                                         0.222289       0.085276
                                                         0.683483       0.538304
                                                         2.941249       0.856044

                          1       4    4px               0.114558      -0.035043
                                                         0.222289      -0.159067
                                                         0.683483       0.106927
                                                         2.941249      -0.036832
                          1       4    4py               0.114558      -0.035043
                                                         0.222289      -0.159067
                                                         0.683483       0.106927
                                                         2.941249      -0.036832
                          1       4    4pz               0.114558      -0.035043
                                                         0.222289      -0.159067
                                                         0.683483       0.106927
                                                         2.941249      -0.036832

                          2       1    1s                3.530512       0.816191

     AE Potential information for                                            ALL

       Description:                                       All-electron potential
                                          Krack, Parrinello, PCCP 2, 2105 (2000)

       Gaussian exponent of the core charge distribution:               4.109048
       Electronic configuration (s p d ...):                           4   2   0

  2. Atomic kind: H                                     Number of atoms:      11

     Orbital Basis Set                                    aug-SZV-MOLOPT-ae-mini

       Number of orbital shell sets:                                           1
       Number of orbital shells:                                               4
       Number of primitive Cartesian functions:                                7
       Number of Cartesian basis functions:                                    6
       Number of spherical basis functions:                                    6
       Norm type:                                                              2

       Normalised Cartesian orbitals:

                        Set   Shell   Orbital            Exponent    Coefficient

                          1       1    1s                0.065428       0.000000
                                                         0.100112       0.016532
                                                         0.243077       0.102760
                                                         0.625955       0.185857
                                                         1.822143       0.188385
                                                         6.513144       0.143430
                                                        35.523221       0.095030

                          1       2    2s                0.065428       0.083549
                                                         0.100112       0.009605
                                                         0.243077       0.002524
                                                         0.625955       0.013457
                                                         1.822143       0.000000
                                                         6.513144       0.000000
                                                        35.523221       0.000000

                          1       3    3s                0.065428       0.037407
                                                         0.100112      -0.169070
                                                         0.243077      -0.018899
                                                         0.625955       0.012806
                                                         1.822143       0.000000
                                                         6.513144       0.000000
                                                        35.523221       0.000000

                          1       4    2px               0.065428       0.059908
                                                         0.100112      -0.023770
                                                         0.243077       0.000032
                                                         0.625955       0.017779
                                                         1.822143       0.000000
                                                         6.513144       0.000000
                                                        35.523221       0.000000
                          1       4    2py               0.065428       0.059908
                                                         0.100112      -0.023770
                                                         0.243077       0.000032
                                                         0.625955       0.017779
                                                         1.822143       0.000000
                                                         6.513144       0.000000
                                                        35.523221       0.000000
                          1       4    2pz               0.065428       0.059908
                                                         0.100112      -0.023770
                                                         0.243077       0.000032
                                                         0.625955       0.017779
                                                         1.822143       0.000000
                                                         6.513144       0.000000
                                                        35.523221       0.000000

     RI Auxiliary Basis Set             RI_aug-SZV-MOLOPT-ae_N_RI_035_s_p_d_f_g_

       Number of orbital shell sets:                                          15
       Number of orbital shells:                                              15
       Number of primitive Cartesian functions:                               15
       Number of Cartesian basis functions:                                   37
       Number of spherical basis functions:                                   35
       Norm type:                                                              2

       Normalised Cartesian orbitals:

                        Set   Shell   Orbital            Exponent    Coefficient

                          1       1    1s                0.236911       0.242019

                          2       1    8px               0.347892       0.380843
                          2       1    8py               0.347892       0.380843
                          2       1    8pz               0.347892       0.380843

                          3       1    2s                0.423897       0.374417

                          4       1    9px               0.493166       0.589089
                          4       1    9py               0.493166       0.589089
                          4       1    9pz               0.493166       0.589089

                          5       1   14dx2              0.625366       0.723843
                          5       1   14dxy              0.625366       1.253733
                          5       1   14dxz              0.625366       1.253733
                          5       1   14dy2              0.625366       0.723843
                          5       1   14dyz              0.625366       1.253733
                          5       1   14dz2              0.625366       0.723843

                          6       1   10px               0.699103       0.911206
                          6       1   10py               0.699103       0.911206
                          6       1   10pz               0.699103       0.911206

                          7       1    3s                0.758464       0.579244

                          8       1   11px               0.991036       1.409457
                          8       1   11py               0.991036       1.409457
                          8       1   11pz               0.991036       1.409457

                          9       1   15dx2              1.286053       2.556305
                          9       1   15dxy              1.286053       4.427650
                          9       1   15dxz              1.286053       4.427650
                          9       1   15dy2              1.286053       2.556305
                          9       1   15dyz              1.286053       4.427650
                          9       1   15dz2              1.286053       2.556305

                         10       1    4s                1.357095       0.896123

                         11       1   12px               1.404875       2.180155
                         11       1   12py               1.404875       2.180155
                         11       1   12pz               1.404875       2.180155

                         12       1   13px               1.991527       3.372273
                         12       1   13py               1.991527       3.372273
                         12       1   13pz               1.991527       3.372273

                         13       1    5s                2.428204       1.386354

                         14       1    6s                4.344704       2.144768

                         15       1    7s                7.773833       3.318077

       Atomic covalent radius [Angstrom]:                                  0.320

       Atomic van der Waals radius [Angstrom]:                             1.090

     The atoms of this atomic kind are PAW atoms (GAPW):
       Hard Gaussian function radius:                                      1.200
       Rho0 radius:                                                        1.200
       Maximum GTO radius used for PAW projector construction:            24.566

     GAPW Soft Basis Set                             aug-SZV-MOLOPT-ae-mini_soft

       Number of orbital shell sets:                                           1
       Number of orbital shells:                                               4
       Number of primitive Cartesian functions:                                6
       Number of Cartesian basis functions:                                    6
       Number of spherical basis functions:                                    6
       Norm type:                                                              2

       Normalised Cartesian orbitals:

                        Set   Shell   Orbital            Exponent    Coefficient

                          1       1    1s                0.065428       0.000000
                                                         0.100112       0.016532
                                                         0.243077       0.102760
                                                         0.625955       0.185857
                                                         1.822143       0.188385
                                                         6.513144       0.000000

                          1       2    2s                0.065428       0.083549
                                                         0.100112       0.009605
                                                         0.243077       0.002524
                                                         0.625955       0.013457
                                                         1.822143       0.000000
                                                         6.513144       0.000000

                          1       3    3s                0.065428       0.037407
                                                         0.100112      -0.169070
                                                         0.243077      -0.018899
                                                         0.625955       0.012806
                                                         1.822143       0.000000
                                                         6.513144       0.000000

                          1       4    2px               0.065428       0.059908
                                                         0.100112      -0.023770
                                                         0.243077       0.000032
                                                         0.625955       0.017779
                                                         1.822143       0.000000
                                                         6.513144       0.000000
                          1       4    2py               0.065428       0.059908
                                                         0.100112      -0.023770
                                                         0.243077       0.000032
                                                         0.625955       0.017779
                                                         1.822143       0.000000
                                                         6.513144       0.000000
                          1       4    2pz               0.065428       0.059908
                                                         0.100112      -0.023770
                                                         0.243077       0.000032
                                                         0.625955       0.017779
                                                         1.822143       0.000000
                                                         6.513144       0.000000

     AE Potential information for                                            ALL

       Description:                                       All-electron potential
                                          Krack, Parrinello, PCCP 2, 2105 (2000)

       Gaussian exponent of the core charge distribution:              12.500000
       Electronic configuration (s p d ...):                           1   0   0

  3. Atomic kind: N                                     Number of atoms:       1

     Orbital Basis Set                                    aug-SZV-MOLOPT-ae-mini

       Number of orbital shell sets:                                           2
       Number of orbital shells:                                               5
       Number of primitive Cartesian functions:                                7
       Number of Cartesian basis functions:                                    9
       Number of spherical basis functions:                                    9
       Norm type:                                                              2

       Normalised Cartesian orbitals:

                        Set   Shell   Orbital            Exponent    Coefficient

                          1       1    1s                0.112012       0.000000
                                                         0.285714       0.194997
                                                         0.878496       0.258372
                                                         3.780455      -0.193164

                          1       2    2s                0.112012      -0.247059
                                                         0.285714       0.355178
                                                         0.878496       0.105643
                                                         3.780455      -0.000189

                          1       3    2px               0.112012       0.000000
                                                         0.285714       0.116706
                                                         0.878496       0.736703
                                                         3.780455       1.171552
                          1       3    2py               0.112012       0.000000
                                                         0.285714       0.116706
                                                         0.878496       0.736703
                                                         3.780455       1.171552
                          1       3    2pz               0.112012       0.000000
                                                         0.285714       0.116706
                                                         0.878496       0.736703
                                                         3.780455       1.171552

                          1       4    3px               0.112012       0.096580
                                                         0.285714      -0.017996
                                                         0.878496       0.000162
                                                         3.780455       0.000013
                          1       4    3py               0.112012       0.096580
                                                         0.285714      -0.017996
                                                         0.878496       0.000162
                                                         3.780455       0.000013
                          1       4    3pz               0.112012       0.096580
                                                         0.285714      -0.017996
                                                         0.878496       0.000162
                                                         3.780455       0.000013

                          2       1    1s               99.106168       3.454863
                                                        18.052312       3.341413
                                                         4.885660       1.041372

     RI Auxiliary Basis Set             RI_aug-SZV-MOLOPT-ae-mini_N_RI_047_s_p_d

       Number of orbital shell sets:                                          17
       Number of orbital shells:                                              17
       Number of primitive Cartesian functions:                               17
       Number of Cartesian basis functions:                                   52
       Number of spherical basis functions:                                   47
       Norm type:                                                              2

       Normalised Cartesian orbitals:

                        Set   Shell   Orbital            Exponent    Coefficient

                          1       1    1s                0.280030       0.274355

                          2       1    8px               0.280030       0.290366
                          2       1    8py               0.280030       0.290366
                          2       1    8pz               0.280030       0.290366

                          3       1   13dx2              0.280030       0.177426
                          3       1   13dxy              0.280030       0.307311
                          3       1   13dxz              0.280030       0.307311
                          3       1   13dy2              0.280030       0.177426
                          3       1   13dyz              0.280030       0.307311
                          3       1   13dz2              0.280030       0.177426

                          4       1    2s                0.470510       0.404890

                          5       1    9px               0.609890       0.768254
                          5       1    9py               0.609890       0.768254
                          5       1    9pz               0.609890       0.768254

                          6       1   14dx2              0.609890       0.692787
                          6       1   14dxy              0.609890       1.199942
                          6       1   14dxz              0.609890       1.199942
                          6       1   14dy2              0.609890       0.692787
                          6       1   14dyz              0.609890       1.199942
                          6       1   14dz2              0.609890       0.692787

                          7       1    3s                0.790558       0.597531

                          8       1    4s                1.328308       0.881828

                          9       1   15dx2              1.328308       2.705093
                          9       1   15dxy              1.328308       4.685358
                          9       1   15dxz              1.328308       4.685358
                          9       1   15dy2              1.328308       2.705093
                          9       1   15dyz              1.328308       4.685358
                          9       1   15dz2              1.328308       2.705093

                         10       1   10px               1.328308       2.032654
                         10       1   10py               1.328308       2.032654
                         10       1   10pz               1.328308       2.032654

                         11       1    5s                2.231842       1.301391

                         12       1   11px               2.892982       5.378018
                         12       1   11py               2.892982       5.378018
                         12       1   11pz               2.892982       5.378018

                         13       1   16dx2              2.892982      10.562447
                         13       1   16dxy              2.892982      18.294694
                         13       1   16dxz              2.892982      18.294694
                         13       1   16dy2              2.892982      10.562447
                         13       1   16dyz              2.892982      18.294694
                         13       1   16dz2              2.892982      10.562447

                         14       1    6s                3.749973       1.920575

                         15       1   17dx2              6.300758      41.242682
                         15       1   17dxy              6.300758      71.434420
                         15       1   17dxz              6.300758      71.434420
                         15       1   17dy2              6.300758      41.242682
                         15       1   17dyz              6.300758      71.434420
                         15       1   17dz2              6.300758      41.242682

                         16       1    7s                6.300758       2.834358

                         17       1   12px               6.300758      14.229221
                         17       1   12py               6.300758      14.229221
                         17       1   12pz               6.300758      14.229221

       Atomic covalent radius [Angstrom]:                                  0.750

       Atomic van der Waals radius [Angstrom]:                             1.550

     The atoms of this atomic kind are PAW atoms (GAPW):
       Hard Gaussian function radius:                                      1.512
       Rho0 radius:                                                        1.512
       Maximum GTO radius used for PAW projector construction:            24.566

     GAPW Soft Basis Set                             aug-SZV-MOLOPT-ae-mini_soft

       Number of orbital shell sets:                                           2
       Number of orbital shells:                                               5
       Number of primitive Cartesian functions:                                4
       Number of Cartesian basis functions:                                    9
       Number of spherical basis functions:                                    9
       Norm type:                                                              2

       Normalised Cartesian orbitals:

                        Set   Shell   Orbital            Exponent    Coefficient

                          1       1    1s                0.112012       0.000000
                                                         0.285714       0.194997
                                                         0.878496       0.258372
                                                         3.780455      -0.193164

                          1       2    2s                0.112012      -0.247059
                                                         0.285714       0.355178
                                                         0.878496       0.105643
                                                         3.780455      -0.000189

                          1       3    2px               0.112012       0.000000
                                                         0.285714       0.116706
                                                         0.878496       0.736703
                                                         3.780455       1.171552
                          1       3    2py               0.112012       0.000000
                                                         0.285714       0.116706
                                                         0.878496       0.736703
                                                         3.780455       1.171552
                          1       3    2pz               0.112012       0.000000
                                                         0.285714       0.116706
                                                         0.878496       0.736703
                                                         3.780455       1.171552

                          1       4    3px               0.112012       0.096580
                                                         0.285714      -0.017996
                                                         0.878496       0.000162
                                                         3.780455       0.000013
                          1       4    3py               0.112012       0.096580
                                                         0.285714      -0.017996
                                                         0.878496       0.000162
                                                         3.780455       0.000013
                          1       4    3pz               0.112012       0.096580
                                                         0.285714      -0.017996
                                                         0.878496       0.000162
                                                         3.780455       0.000013

                          2       1    1s         

     AE Potential information for                                            ALL

       Description:                                       All-electron potential
                                          Krack, Parrinello, PCCP 2, 2105 (2000)

       Gaussian exponent of the core charge distribution:               5.979100
       Electronic configuration (s p d ...):                           4   3   0

  4. Atomic kind: O                                     Number of atoms:       2

     Orbital Basis Set                                    aug-SZV-MOLOPT-ae-mini

       Number of orbital shell sets:                                           2
       Number of orbital shells:                                               5
       Number of primitive Cartesian functions:                                7
       Number of Cartesian basis functions:                                    9
       Number of spherical basis functions:                                    9
       Norm type:                                                              2

       Normalised Cartesian orbitals:

                        Set   Shell   Orbital            Exponent    Coefficient

                          1       1    1s                0.162491       0.000000
                                                         0.380388       0.241685
                                                         1.169596       0.320234
                                                         5.033151      -0.239413

                          1       2    2s                0.162491       0.289618
                                                         0.380388      -0.257800
                                                         1.169596      -0.000000
                                                         5.033151      -0.000284

                          1       3    2px               0.162491       0.000000
                                                         0.380388       0.166902
                                                         1.169596       1.053568
                                                         5.033151       1.675450
                          1       3    2py               0.162491       0.000000
                                                         0.380388       0.166902
                                                         1.169596       1.053568
                                                         5.033151       1.675450
                          1       3    2pz               0.162491       0.000000
                                                         0.380388       0.166902
                                                         1.169596       1.053568
                                                         5.033151       1.675450

                          1       4    3px               0.162491       0.166510
                                                         0.380388      -0.081234
                                                         1.169596      -0.994066
                                                         5.033151       0.014231
                          1       4    3py               0.162491       0.166510
                                                         0.380388      -0.081234
                                                         1.169596      -0.994066
                                                         5.033151       0.014231
                          1       4    3pz               0.162491       0.166510
                                                         0.380388      -0.081234
                                                         1.169596      -0.994066
                                                         5.033151       0.014231

                          2       1    1s              130.709321       4.251922
                                                        23.808866       4.112298
                                                         6.443608       1.281622

     RI Auxiliary Basis Set             RI_aug-SZV-MOLOPT-ae-mini_N_RI_047_s_p_d

       Number of orbital shell sets:                                          17
       Number of orbital shells:                                              17
       Number of primitive Cartesian functions:                               17
       Number of Cartesian basis functions:                                   52
       Number of spherical basis functions:                                   47
       Norm type:                                                              2

       Normalised Cartesian orbitals:

                        Set   Shell   Orbital            Exponent    Coefficient

                          1       1    1s                0.406227       0.362649

                          2       1    8px               0.406227       0.462276
                          2       1    8py               0.406227       0.462276
                          2       1    8pz               0.406227       0.462276

                          3       1   13dx2              0.406228       0.340217
                          3       1   13dxy              0.406228       0.589273
                          3       1   13dxz              0.406228       0.589273
                          3       1   13dy2              0.406228       0.340217
                          3       1   13dyz              0.406228       0.589273
                          3       1   13dz2              0.406228       0.340217

                          4       1    2s                0.672857       0.529483

                          5       1    9px               0.865963       1.190732
                          5       1    9py               0.865963       1.190732
                          5       1    9pz               0.865963       1.190732

                          6       1   14dx2              0.865963       1.279479
                          6       1   14dxy              0.865963       2.216122
                          6       1   14dxz              0.865963       2.216122
                          6       1   14dy2              0.865963       1.279479
                          6       1   14dyz              0.865963       2.216122
                          6       1   14dz2              0.865963       1.279479

                          7       1    3s                1.114489       0.773067

                          8       1    4s                1.845989       1.128709

                          9       1   10px               1.845989       3.067089
                          9       1   10py               1.845989       3.067089
                          9       1   10pz               1.845989       3.067089

                         10       1   15dx2              1.845989       4.811830
                         10       1   15dxy              1.845989       8.334333
                         10       1   15dxz              1.845989       8.334333
                         10       1   15dy2              1.845989       4.811830
                         10       1   15dyz              1.845989       8.334333
                         10       1   15dz2              1.845989       4.811830

                         11       1    5s                3.057611       1.647960

                         12       1   11px               3.935128       7.900211
                         12       1   11py               3.935128       7.900211
                         12       1   11pz               3.935128       7.900211

                         13       1   16dx2              3.935128      18.096203
                         13       1   16dxy              3.935128      31.343543
                         13       1   16dxz              3.935128      31.343543
                         13       1   16dy2              3.935128      18.096203
                         13       1   16dyz              3.935128      31.343543
                         13       1   16dz2              3.935128      18.096203

                         14       1    6s                5.064487       2.406089

                         15       1    7s                8.388585       3.512988

                         16       1   12px               8.388585      20.349370
                         16       1   12py               8.388585      20.349370
                         16       1   12pz               8.388585      20.349370

                         17       1   17dx2              8.388585      68.055730
                         17       1   17dxy              8.388585     117.875982
                         17       1   17dxz              8.388585     117.875982
                         17       1   17dy2              8.388585      68.055730
                         17       1   17dyz              8.388585     117.875982
                         17       1   17dz2              8.388585      68.055730

       Atomic covalent radius [Angstrom]:                                  0.730

       Atomic van der Waals radius [Angstrom]:                             1.520

     The atoms of this atomic kind are PAW atoms (GAPW):
       Hard Gaussian function radius:                                      1.512
       Rho0 radius:                                                        1.512
       Maximum GTO radius used for PAW projector construction:            24.566

     GAPW Soft Basis Set                             aug-SZV-MOLOPT-ae-mini_soft

       Number of orbital shell sets:                                           2
       Number of orbital shells:                                               5
       Number of primitive Cartesian functions:                                3
       Number of Cartesian basis functions:                                    9
       Number of spherical basis functions:                                    9
       Norm type:                                                              2

       Normalised Cartesian orbitals:

                        Set   Shell   Orbital            Exponent    Coefficient

                          1       1    1s                0.162491       0.000000
                                                         0.380388       0.241685
                                                         1.169596       0.320234

                          1       2    2s                0.162491       0.289618
                                                         0.380388      -0.257800
                                                         1.169596      -0.000000

                          1       3    2px               0.162491       0.000000
                                                         0.380388       0.166902
                                                         1.169596       1.053568
                          1       3    2py               0.162491       0.000000
                                                         0.380388       0.166902
                                                         1.169596       1.053568
                          1       3    2pz               0.162491       0.000000
                                                         0.380388       0.166902
                                                         1.169596       1.053568

                          1       4    3px               0.162491       0.166510
                                                         0.380388      -0.081234
                                                         1.169596      -0.994066
                          1       4    3py               0.162491       0.166510
                                                         0.380388      -0.081234
                                                         1.169596      -0.994066
                          1       4    3pz               0.162491       0.166510
                                                         0.380388      -0.081234
                                                         1.169596      -0.994066

                          2       1    1s         

     AE Potential information for                                            ALL

       Description:                                       All-electron potential
                                          Krack, Parrinello, PCCP 2, 2105 (2000)

       Gaussian exponent of the core charge distribution:               8.154466
       Electronic configuration (s p d ...):                           4   4   0


 MOLECULE KIND INFORMATION


 All atoms are their own molecule, skipping detailed information


 TOTAL NUMBERS AND MAXIMUM NUMBERS

  Total number of            - Atomic kinds:                                   4
                             - Atoms:                                         20
                             - Shell sets:                                    29
                             - Shells:                                        89
                             - Primitive Cartesian functions:                140
                             - Cartesian basis functions:                    147
                             - Spherical basis functions:                    147

  Maximum angular momentum of the orbital basis functions:                     1


 MODULE QUICKSTEP: ATOMIC COORDINATES IN ANGSTROM

   Atom Kind Element         X             Y             Z       Z(eff)     Mass
      1    1 C     6     15.591379     15.006417     13.503688   6.0000  12.0107
      2    1 C     6     14.186257     15.032003     14.138162   6.0000  12.0107
      3    2 H     1     15.640045     14.446981     12.561942   1.0000   1.0079
      4    2 H     1     15.986799     16.012926     13.301640   1.0000   1.0079
      5    2 H     1     13.598683     14.171613     13.792600   1.0000   1.0079
      6    3 N     7     15.666809     14.170532     15.655255   7.0000  14.0067
      7    4 O     8     16.312013     13.859830     16.852742   8.0000  15.9994
      8    1 C     6     16.461116     14.370417     14.569493   6.0000  12.0107
      9    1 C     6     14.402216     14.914562     15.676588   6.0000  12.0107
     10    1 C     6     13.303432     14.104678     16.365183   6.0000  12.0107
     11    2 H     1     17.246400     13.791661     16.524344   1.0000   1.0079
     12    2 H     1     13.507942     13.995220     17.438058   1.0000   1.0079
     13    2 H     1     12.335268     14.611044     16.253437   1.0000   1.0079
     14    2 H     1     13.226703     13.102711     15.924458   1.0000   1.0079
     15    2 H     1     13.622599     15.940446     13.896246   1.0000   1.0079
     16    1 C     6     14.584124     16.285685     16.349534   6.0000  12.0107
     17    2 H     1     14.923298     16.164841     17.385697   1.0000   1.0079
     18    2 H     1     15.325977     16.897289     15.818242   1.0000   1.0079
     19    2 H     1     13.631664     16.831592     16.360875   1.0000   1.0079
     20    4 O     8     17.664732     14.097185     14.575710   8.0000  15.9994



 SCF PARAMETERS         Density guess:                                    ATOMIC
                        --------------------------------------------------------
                        max_scf:                                             500
                        max_scf_history:                                       0
                        max_diis:                                              4
                        --------------------------------------------------------
                        eps_scf:                                        1.00E-06
                        eps_scf_history:                                0.00E+00
                        eps_diis:                                       1.00E-01
                        eps_eigval:                                     1.00E-05
                        --------------------------------------------------------
                        level_shift [a.u.]:                             0.000000
                        added MOs                                       112    0
                        --------------------------------------------------------
                        Mixing method:                            BROYDEN_MIXING
                                                charge density mixing in g-space
                        --------------------------------------------------------
                        No outer SCF

 PW_GRID| Information for grid number                                          1
 PW_GRID| Grid distributed over                                    32 processors
 PW_GRID| Real space group dimensions                                    32    1
 PW_GRID| the grid is blocked:                                                NO
 PW_GRID| Cutoff [a.u.]                                                    250.0
 PW_GRID| spherical cutoff:                                                   NO
 PW_GRID|   Bounds   1           -202     202                Points:         405
 PW_GRID|   Bounds   2           -202     202                Points:         405
 PW_GRID|   Bounds   3           -202     202                Points:         405
 PW_GRID| Volume element (a.u.^3)  0.2743E-02     Volume (a.u.^3)    182205.0337
 PW_GRID| Grid span                                                    FULLSPACE
 PW_GRID|   Distribution                         Average         Max         Min
 PW_GRID|   G-Vectors                          2075941.4     2076030     2075625
 PW_GRID|   G-Rays                                5125.8        5126        5125
 PW_GRID|   Real Space Points                  2075941.4     2132325     1968300

 PW_GRID| Information for grid number                                          2
 PW_GRID| Number of the reference grid                                         1
 PW_GRID| Grid distributed over                                    32 processors
 PW_GRID| Real space group dimensions                                    32    1
 PW_GRID| the grid is blocked:                                                NO
 PW_GRID| Cutoff [a.u.]                                                     83.3
 PW_GRID| spherical cutoff:                                                   NO
 PW_GRID|   Bounds   1           -120     119                Points:         240
 PW_GRID|   Bounds   2           -120     119                Points:         240
 PW_GRID|   Bounds   3           -120     119                Points:         240
 PW_GRID| Volume element (a.u.^3)  0.1318E-01     Volume (a.u.^3)    182205.0337
 PW_GRID| Grid span                                                    FULLSPACE
 PW_GRID|   Distribution                         Average         Max         Min
 PW_GRID|   G-Vectors                           432000.0      432480      431760
 PW_GRID|   G-Rays                                1800.0        1802        1799
 PW_GRID|   Real Space Points                   432000.0      460800      403200

 PW_GRID| Information for grid number                                          3
 PW_GRID| Number of the reference grid                                         1
 PW_GRID| Grid distributed over                                    32 processors
 PW_GRID| Real space group dimensions                                    32    1
 PW_GRID| the grid is blocked:                                                NO
 PW_GRID| Cutoff [a.u.]                                                     27.8
 PW_GRID| spherical cutoff:                                                   NO
 PW_GRID|   Bounds   1            -67      67                Points:         135
 PW_GRID|   Bounds   2            -67      67                Points:         135
 PW_GRID|   Bounds   3            -67      67                Points:         135
 PW_GRID| Volume element (a.u.^3)  0.7406E-01     Volume (a.u.^3)    182205.0337
 PW_GRID| Grid span                                                    FULLSPACE
 PW_GRID|   Distribution                         Average         Max         Min
 PW_GRID|   G-Vectors                            76886.7       77085       76680
 PW_GRID|   G-Rays                                 569.5         571         568
 PW_GRID|   Real Space Points                    76886.7       91125       72900

 PW_GRID| Information for grid number                                          4
 PW_GRID| Number of the reference grid                                         1
 PW_GRID| Grid distributed over                                    32 processors
 PW_GRID| Real space group dimensions                                    32    1
 PW_GRID| the grid is blocked:                                                NO
 PW_GRID| Cutoff [a.u.]                                                      9.3
 PW_GRID| spherical cutoff:                                                   NO
 PW_GRID|   Bounds   1            -40      39                Points:          80
 PW_GRID|   Bounds   2            -40      39                Points:          80
 PW_GRID|   Bounds   3            -40      39                Points:          80
 PW_GRID| Volume element (a.u.^3)  0.3559         Volume (a.u.^3)    182205.0337
 PW_GRID| Grid span                                                    FULLSPACE
 PW_GRID|   Distribution                         Average         Max         Min
 PW_GRID|   G-Vectors                            16000.0       16160       15920
 PW_GRID|   G-Rays                                 200.0         202         199
 PW_GRID|   Real Space Points                    16000.0       19200       12800

 POISSON| Solver                                                         WAVELET
 POISSON| Wavelet| Scaling function                                           40
 POISSON| Periodicity                                                       NONE

 RS_GRID| Information for grid number                                          1
 RS_GRID|   Bounds   1           -202     202                Points:         405
 RS_GRID|   Bounds   2           -202     202                Points:         405
 RS_GRID|   Bounds   3           -202     202                Points:         405
 RS_GRID| Real space distribution over                                  2 groups
 RS_GRID| Real space distribution along direction                              1
 RS_GRID| Border size                                                         33
 RS_GRID| Real space distribution over                                  4 groups
 RS_GRID| Real space distribution along direction                              2
 RS_GRID| Border size                                                         33
 RS_GRID| Real space distribution over                                  4 groups
 RS_GRID| Real space distribution along direction                              3
 RS_GRID| Border size                                                         33
 RS_GRID|   Distribution                         Average         Max         Min
 RS_GRID|   Planes                                 268.5         269         268
 RS_GRID|   Distribution                         Average         Max         Min
 RS_GRID|   Planes                                 167.2         168         167
 RS_GRID|   Distribution                         Average         Max         Min
 RS_GRID|   Planes                                 167.2         168         167

 RS_GRID| Information for grid number                                          2
 RS_GRID|   Bounds   1           -120     119                Points:         240
 RS_GRID|   Bounds   2           -120     119                Points:         240
 RS_GRID|   Bounds   3           -120     119                Points:         240
 RS_GRID| Real space distribution over                                  2 groups
 RS_GRID| Real space distribution along direction                              1
 RS_GRID| Border size                                                         35
 RS_GRID| Real space distribution over                                  4 groups
 RS_GRID| Real space distribution along direction                              2
 RS_GRID| Border size                                                         35
 RS_GRID| Real space distribution over                                  4 groups
 RS_GRID| Real space distribution along direction                              3
 RS_GRID| Border size                                                         35
 RS_GRID|   Distribution                         Average         Max         Min
 RS_GRID|   Planes                                 190.0         190         190
 RS_GRID|   Distribution                         Average         Max         Min
 RS_GRID|   Planes                                 130.0         130         130
 RS_GRID|   Distribution                         Average         Max         Min
 RS_GRID|   Planes                                 130.0         130         130

 RS_GRID| Information for grid number                                          3
 RS_GRID|   Bounds   1            -67      67                Points:         135
 RS_GRID|   Bounds   2            -67      67                Points:         135
 RS_GRID|   Bounds   3            -67      67                Points:         135
 RS_GRID| Real space fully replicated
 RS_GRID| Group size                                                           1

 RS_GRID| Information for grid number                                          4
 RS_GRID|   Bounds   1            -40      39                Points:          80
 RS_GRID|   Bounds   2            -40      39                Points:          80
 RS_GRID|   Bounds   3            -40      39                Points:          80
 RS_GRID| Real space fully replicated
 RS_GRID| Group size                                                           1

  HFX_INFO| Replica ID:                                                        1
  HFX_INFO| FRACTION:                                               0.2500000000
  HFX_INFO| Interaction Potential:                                       COULOMB
  HFX_INFO| EPS_SCHWARZ:                                                 1.0E-10
[...]
 Efficient solution of Poisson's equation with free boundary conditions.
 https://doi.org/10.1063/1.2335442

 M. Iannuzzi, T. Chassaing, T. Wallman, J. Hutter.
 CHIMIA 59, 499-503 (2005).
 Ground and excited state density functional calculations with the Gaussian and 
 augmented-plane-wave method.
 https://doi.org/10.2533/000942905777676164

 M. Frigo, S. G. Johnson.
 Proc. IEEE 93, 216-231 (2005).
 The design and implementation of FFTW3.
 https://doi.org/10.1109/JPROC.2004.840301

 R. L. Martin.
 J. Chem. Phys. 118, 4775-4777 (2003).
 Natural transition orbitals.
 https://doi.org/10.1063/1.1558471

 M. Krack, M. Parrinello.
 Phys. Chem. Chem. Phys. 2, 2105-2112 (2000).
 All-electron ab-initio molecular dynamics.
 https://doi.org/10.1039/b001167n

 G. Lippert, J. Hutter, M. Parrinello.
 Theor. Chem. Acc. 103, 124-140 (1999).
 The Gaussian and augmented-plane-wave density functional method for ab initio 
 molecular dynamics simulations.
 https://doi.org/10.1007/s002140050523

 J. P. Perdew, K. Burke, M. Ernzerhof.
 Phys. Rev. Lett. 77, 3865-3868 (1996).
 Generalized gradient approximation made simple.
 https://doi.org/10.1103/PhysRevLett.77.3865


 -------------------------------------------------------------------------------
 -                                                                             -
 -                                T I M I N G                                  -
 -                                                                             -
 -------------------------------------------------------------------------------
 SUBROUTINE                       CALLS  ASD         SELF TIME        TOTAL TIME
                                MAXIMUM       AVERAGE  MAXIMUM  AVERAGE  MAXIMUM
 CP2K                                 1  1.0    0.019    0.032  459.063  459.068
 qs_energies                          1  2.0    0.000    0.000  458.514  458.518
 qs_energies_properties               1  3.0    0.000    0.000  346.679  346.682
 tddfpt                               1  4.0    0.000    0.000  346.679  346.682
 tddfpt_energies                      1  5.0    0.000    0.000  346.668  346.671
 tddfpt_davidson_solver               1  6.0    0.001    0.001  345.551  345.554
 tddfpt_compute_Aop_evects           10  7.0    0.000    0.000  343.670  343.674
 fhxc_kernel                         10  8.0    0.006    0.007  329.069  329.073
 fft_wrap_pw1pw2                   5337 11.1    0.082    0.102  162.818  165.027
 pw_poisson_solve                   263  9.5    2.980    3.302  163.639  164.768
 fft_wrap_pw1pw2_250               3753 12.2    7.219    7.810  157.555  159.576
 tddfpt_apply_coulomb               200  9.0    0.003    0.003  146.705  147.587
 fft3d_ps                          5337 13.1   54.583   60.281  122.692  126.050
 ps_wavelet_solve                   263 10.5   82.560  110.352  122.517  123.734
 scf_env_do_scf                       1  3.0    0.000    0.000  109.760  109.761
 scf_env_do_scf_inner_loop           63  4.0    0.001    0.005  109.760  109.761
 mp_alltoall_d54                    263 11.5   29.496   99.136   29.496   99.136
 qs_ks_update_qs_env                 63  5.0    0.000    0.000   79.282   79.287
 rebuild_ks_matrix                   63  6.0    0.000    0.000   79.278   79.283
 qs_ks_build_kohn_sham_matrix        63  7.0    0.008    0.009   79.278   79.283
 xc_pw_derive                      1581 11.0    0.010    0.012   76.248   77.435
 tddfpt_apply_xc_analytic           200  9.0    0.506    0.553   75.864   76.307
 qs_rho_update_rho_low              265  8.0    0.003    0.003   75.218   75.706
 calculate_rho_elec                 265  9.0    2.073    2.130   73.878   74.371
 mp_alltoall_z22v                  5337 15.1   52.045   63.955   52.045   63.955
 xc_pw_divergence                   263 10.8    0.006    0.007   50.772   51.898
 xc_calc_2nd_deriv_analytical      1400 10.6    3.453    3.817   44.323   44.430
 density_rs2pw                      265 10.0    0.008    0.009   41.322   43.346
 yz_to_x                           2640 14.5    7.192    7.773   33.166   39.780
 x_to_yz                           2697 13.8    8.770    9.863   34.841   37.958
 integrate_v_rspace                 263  9.0    0.007    0.008   31.362   31.426
 grid_collocate_task_list           265 10.0   29.237   30.923   29.237   30.923
 potential_pw2rs                    263 10.0    0.062    0.066   30.037   30.216
 qs_vxc_create                       63  8.0    0.001    0.001   24.144   24.144
 xc_vxc_pw_create                    63  9.0    0.665    0.702   24.143   24.143
 transfer_rs2pw                    1325 11.0    0.017    0.021   21.215   23.267
 transfer_pw2rs                    1316 10.9    0.015    0.019   22.410   23.030
 mp_waitany                       34870 12.9   18.627   22.030   18.627   22.030
 prepare_gapw_den                   264  8.8    0.003    0.003   21.211   21.459
 put_rho0_on_grid                   264  9.8    2.109    2.212   20.779   21.025
 transfer_rs2pw_250                 530 11.9    5.306    5.707   13.894   15.784
 mp_alltoall_d45                    264 11.5    9.921   15.443    9.921   15.443
 integrate_four_center              463  9.9    9.129   12.562   15.390   15.434
 transfer_pw2rs_250                 527 11.8    5.667    6.039   14.086   14.940
 tddfpt_apply_hfx                    10  8.0    0.002    0.003   14.106   14.107
 pw_gather_p                       2640 13.5   12.559   13.959   12.559   13.959
 gspace_mixing                       62  5.0    0.485    0.499   12.998   12.998
 pw_scatter_p                      2697 12.8   11.935   12.451   11.935   12.451
 xc_rho_set_and_dset_create          64 10.0    0.377    0.413   11.772   12.402
 tddft_hfx_matrix                   400  9.0    0.004    0.005   12.135   12.174
 mp_waitall_1                    160790 13.8    6.472   11.475    6.472   11.475
 mp_alltoall_d11v                 17368 11.7    5.791   11.019    5.791   11.019
 pw_derive                         2370 11.8    9.851   10.405    9.851   10.405
 broyden_mixing                      62  6.0    9.845   10.019   10.070   10.103
 integrate_vhg0_rspace              263  9.5    0.094    0.153    9.734    9.771
 dbcsr_multiply_generic            1709 10.4    0.038    0.040    7.633    8.285
 cp_dbcsr_plus_fm_fm_t              263  8.5    0.002    0.002    6.480    7.061
 sum_up_and_integrate                63  8.0    0.001    0.001    7.031    7.041
 mp_sync                           2437 11.5    3.673    6.805    3.673    6.805
 pw_copy                           3550 11.0    6.027    6.386    6.027    6.386
 multiply_cannon                   1709 11.4    0.077    0.080    3.794    6.162
 pw_copy_to_array                  2640 13.5    4.988    5.997    4.988    5.997
 cp2k_distribution_to_z_slices      263 10.5    2.444    2.828    5.111    5.948
 pw_poisson_set                     264 10.5    0.005    0.006    5.327    5.621
 mp_sum_d                          4772  7.8    2.866    5.469    2.866    5.469
 multiply_cannon_loop              1709 12.4    0.044    0.047    2.681    5.012
 multiply_cannon_metrocomm3       13672 13.4    0.018    0.019    1.794    4.787
 mp_sum_l                          6485 10.7    2.980    4.720    2.980    4.720
 fft_wrap_pw1pw2_90                 528 12.0    0.183    0.198    4.036    4.642
 pw_axpy                           2838 10.9    4.239    4.596    4.239    4.596
 transfer_pw2rs_30                  263 12.0    1.819    1.981    3.760    4.045
 transfer_pw2rs_90                  263 12.0    0.890    1.009    3.474    3.910
 rs_grid_zero                      1318 12.0    3.639    3.839    3.639    3.839
 transfer_rs2pw_90                  265 12.0    0.869    0.968    3.379    3.557
 cp_dbcsr_sm_fm_multiply           1246  8.6    0.014    0.015    3.358    3.418
 pw_integral_ab_c1d_c1d_gs          263 10.5    2.855    2.903    3.156    3.339
 hfx_ks_matrix                       63  8.0    0.001    0.001    3.264    3.281
 pw_copy_from_array                2697 12.8    3.112    3.274    3.112    3.274
 xc_functional_eval                1642 10.8    0.001    0.003    2.536    3.213
 pbe_lda_eval                      1642 11.8    2.534    3.211    2.534    3.211
 mp_sum_dm                        15960 10.2    2.726    3.126    2.726    3.126
 mp_sendrecv_dv                   16430 13.0    2.875    3.099    2.875    3.099
 transfer_rs2pw_30                  265 12.0    0.854    0.990    2.852    3.076
 pw_zero                           2984 10.6    2.802    2.993    2.802    2.993
 dbcsr_complete_redistribute       4106 10.5    0.092    0.139    2.484    2.685
 multiply_cannon_metrocomm1       13672 13.4    0.009    0.009    0.431    2.281
 copy_dbcsr_to_fm                  1331  9.4    0.009    0.010    2.036    2.125
 integrate_four_center_main         463 10.9    0.060    0.083    1.759    1.847
 integrate_four_center_bin        34843 11.9    1.698    1.780    1.698    1.780
 Vh_1c_gg_integrals                 263  9.5    0.029    0.068    0.746    1.700
 mp_max_i                           736  5.2    0.754    1.690    0.754    1.690
 make_m2s                          3418 11.4    0.020    0.020    0.700    1.474
 rs_scatter_matrices                265 10.0    0.003    0.003    0.570    1.410
 make_images                       3418 12.4    0.048    0.050    0.638    1.406
 mp_isend_dv                      53950 13.7    0.627    1.391    0.627    1.391
 cp_dbcsr_sm_fm_multiply_core      1246  9.6    0.002    0.002    1.283    1.377
 qs_energies_init_hamiltonians        1  3.0    0.000    0.000    1.348    1.348
 calculate_rho_atom_coeff           265  9.0    0.063    0.076    1.337    1.346
 calculate_xc_2nd_deriv_atom        200  9.0    0.119    0.363    0.356    1.328
 transfer_pw2rs_10                  263 12.0    0.263    0.282    1.075    1.311
 rs_gather_matrices                 263 10.0    0.005    0.006    0.754    1.282
 transfer_rs2pw_10                  265 12.0    0.195    0.211    1.072    1.275
 build_core_hamiltonian_matrix        1  4.0    0.000    0.000    1.254    1.254
 overlap_condnum                      1  5.0    0.000    0.000    1.253    1.253
 cp_fm_diag_elpa                    115  7.2    0.000    0.000    1.246    1.248
 cp_fm_diag_elpa_base               115  8.2    1.019    1.222    1.101    1.229
 fft_wrap_pw1pw2_30                 528 12.0    0.040    0.042    0.915    1.176
 prepare_dr1dr                     1400 11.6    1.086    1.172    1.086    1.172
 grid_integrate_task_list           263 10.0    0.563    1.164    0.563    1.164
 mp_allgather_i34                  1709 12.4    0.984    1.104    0.984    1.104
 multiply_cannon_metrocomm4       11963 13.4    0.019    0.020    0.359    1.062
 qs_scf_new_mos                      63  5.0    0.001    0.001    0.862    1.027
 mp_alltoall_i22                   5438 11.5    0.873    1.009    0.873    1.009
 copy_fm_to_dbcsr                  2773  9.6    0.007    0.008    0.808    0.988
 hybrid_alltoall_any               4750 13.5    0.020    0.021    0.176    0.978
 make_images_data                  3418 13.4    0.021    0.024    0.176    0.941
 gaVxcgb_GC                         789  9.8    0.213    0.939    0.213    0.939
 tddfpt_orthonormalize_psi1_psi      11  6.9    0.013    0.013    0.735    0.735
 mp_sum_dv                        25364  8.9    0.640    0.719    0.640    0.719
 mp_cart_sub                       2664 11.4    0.701    0.706    0.701    0.706
 scale_and_distribute               526 11.5    0.607    0.673    0.607    0.673
 init_scf_run                         1  3.0    0.000    0.000    0.659    0.659
 scf_env_initial_rho_setup            1  4.0    0.000    0.000    0.651    0.651
 parallel_gemm_fm                  1788  8.3    0.001    0.002    0.582    0.614
 parallel_gemm_fm_cosma            1788  9.3    0.581    0.613    0.581    0.613
 calculate_dm_sparse                 63  6.0    0.000    0.000    0.451    0.613
 pw_poisson_rebuild                 263 10.5    0.000    0.000    0.527    0.540
 ps_wavelet_create                    1 10.0    0.000    0.000    0.526    0.540
 RS_z_slice_distribution              1 11.0    0.459    0.492    0.526    0.540
 mp_alltoall_i11v                 13650 11.5    0.366    0.515    0.366    0.515
 mp_max_d                           245  8.4    0.255    0.506    0.255    0.506
 dbcsr_desymmetrize_deep           1332 10.4    0.014    0.020    0.463    0.503
 self_consistency_check              63  5.0    0.000    0.000    0.251    0.503
 cp_sm_mix                           63  6.0    0.000    0.000    0.251    0.503
 tddfpt_compute_residual_vects        9  7.0    0.000    0.001    0.498    0.498
 tddfpt_apply_energy_diff            10  8.0    0.000    0.001    0.495    0.495
 cp_fm_trace_a1b1t1_aa            20310  8.0    0.041    0.044    0.441    0.444
 pw_scale                           652  9.5    0.394    0.430    0.394    0.430
 tddfpt_compute_ritz_vects           10  7.0    0.003    0.003    0.416    0.417
 powell_optimize                 274762 11.0    0.396    0.411    0.396    0.411
 mp_cart_create                    2388 10.7    0.360    0.387    0.362    0.389
 update_ks_atom                     263  8.8    0.046    0.064    0.200    0.386
 qs_init_subsys                       1  2.0    0.001    0.001    0.385    0.385
 qs_env_setup                         1  3.0    0.000    0.000    0.383    0.383
 qs_env_rebuild_pw_env                2  3.5    0.000    0.000    0.382    0.383
 pw_env_rebuild                       1  5.0    0.000    0.000    0.382    0.383
 pw_grid_setup                        4  6.0    0.000    0.000    0.375    0.375
 pw_grid_setup_internal               4  7.0    0.005    0.006    0.375    0.375
 make_images_sizes                 3418 13.4    0.002    0.003    0.338    0.374
 eigensolver_symm                    63  6.0    0.004    0.005    0.371    0.372
 tddfpt_construct_ground_state_       1  6.0    0.000    0.000    0.371    0.372
 mp_alltoall_i44                   3418 14.4    0.335    0.372    0.335    0.372
 tddfpt_print_nto_analysis            1  6.0    0.001    0.002    0.366    0.366
 cp_fm_power                          1  6.0    0.000    0.000    0.365    0.365
 calculate_vxc_atom                  63  8.0    0.036    0.074    0.354    0.355
 calculate_rho_atom                1056  9.8    0.242    0.353    0.242    0.353
 cp_fm_write_unformatted             44  7.5    0.331    0.338    0.331    0.338
 mp_bcast_dm                      10520  9.8    0.154    0.322    0.154    0.322
 calc_screening_functions             1 10.0    0.078    0.079    0.308    0.318
 fft_wrap_pw1pw2_10                 528 12.0    0.009    0.010    0.230    0.317
 pw_grid_sort                         4  8.0    0.219    0.225    0.307    0.316
 cp_fm_redistribute_end             115  8.2    0.130    0.258    0.130    0.258
 create_kernel_env                    1  6.0    0.000    0.000    0.225    0.250
 xc_prep_2nd_deriv                    1  7.0    0.000    0.000    0.225    0.250
 integrate_four_center_dist_KS      463 10.9    0.017    0.023    0.216    0.245
 calc_pair_dist_radii                 1 10.0    0.072    0.073    0.239    0.243
 tddfpt_write_restart                 2  6.5    0.003    0.092    0.241    0.243
 xc_2nd_deriv_of_r                 1200 10.0    0.010    0.046    0.052    0.226
 cp_fm_geeig                         20  7.0    0.001    0.001    0.216    0.217
 integrate_four_center_getP         463 10.9    0.017    0.019    0.179    0.216
 mp_isendrecv_dv                  45012 12.3    0.089    0.212    0.089    0.212
 arnoldi_conjugate_gradient           5  6.0    0.005    0.006    0.200    0.200
 dbcsr_finalize                   10033 11.3    0.024    0.033    0.150    0.186
 mp_bcast_b_src                     178  8.1    0.039    0.155    0.039    0.155
 cp_fm_uplo_to_full                 116  9.2    0.053    0.147    0.053    0.147
 dbcsr_sym_matrix_vector_mult      1485  7.0    0.011    0.012    0.114    0.119
 create_qs_kind_set                   1  2.0    0.000    0.000    0.111    0.112
 read_qs_kind                         4  3.0    0.042    0.062    0.111    0.112
 tddfpt_orthogonalize_psi1_psi0      11  6.9    0.000    0.000    0.082    0.107
 write_mo_set_to_restart             63  5.0    0.004    0.100    0.097    0.104
 dbcsr_merge_all                   8278 12.4    0.055    0.066    0.087    0.102
 dbcsr_create_new                 33082 11.4    0.069    0.072    0.092    0.096
 write_mo_set_low                     4  6.0    0.000    0.000    0.093    0.096
 qs_env_update_s_mstruct              1  4.0    0.000    0.000    0.020    0.094
 qs_create_task_list                  1  5.0    0.000    0.000    0.020    0.094
 generate_qs_task_list                1  6.0    0.000    0.000    0.020    0.094
 distribute_tasks                     1  7.0    0.000    0.000    0.020    0.094
 create_local_tasks                   1  8.0    0.000    0.000    0.019    0.093
 mp_alltoall_l11v                     1  9.0    0.019    0.093    0.019    0.093
 calculate_ecore_overlap              1  4.0    0.000    0.000    0.074    0.093
 sort_shells                          4  9.0    0.088    0.092    0.088    0.092
 offload_free_buffer                271 10.3    0.066    0.086    0.066    0.086
 mp_rank_compare                   5337 14.1    0.072    0.085    0.072    0.085
 mp_isend_dm3                      9510 12.9    0.072    0.081    0.072    0.081
 dbcsr_add_d                       2273  7.1    0.001    0.001    0.020    0.080
 dbcsr_add_anytype                 2273  8.1    0.002    0.009    0.019    0.079
 xc_pw_smooth                        63 10.0    0.000    0.000    0.065    0.072
 parser_read_line                 18629  4.0    0.003    0.003    0.069    0.070
 dbcsr_iterator_start             46454 11.0    0.045    0.053    0.056    0.070
 scf_post_calculation_gpw             1  3.0    0.000    0.000    0.068    0.068
 write_available_results              1  4.0    0.000    0.000    0.068    0.068
 write_mo_free_results                1  5.0    0.009    0.010    0.068    0.068
 parser_read_line_low                30  5.0    0.002    0.017    0.066    0.067
 dbcsr_work_create                14737 12.2    0.036    0.044    0.057    0.067
 mixing_init                          1  5.0    0.063    0.067    0.067    0.067
 broadcast_input_information         30  6.0    0.005    0.005    0.064    0.066
 copy_fm_to_dbcsr_bc               2773 10.6    0.016    0.017    0.061    0.065
 mp_maxloc_dv                      1237  1.0    0.059    0.063    0.059    0.063
 dbcsr_data_new                  148133 12.5    0.049    0.054    0.049    0.054
 multiply_cannon_multrec          13672 13.4    0.022    0.046    0.027    0.051
 vxc_of_r_new                       378  9.0    0.002    0.008    0.012    0.050
 dbcsr_dot_sd                       463 10.9    0.002    0.002    0.038    0.050
 mp_bcast_i_src                     120  7.0    0.045    0.049    0.045    0.049
 calculate_rho0_atom               1056  9.8    0.046    0.047    0.046    0.047
 dbcsr_work_destroy_all           14737 13.2    0.025    0.031    0.037    0.047
 -------------------------------------------------------------------------------

 The number of warnings for this run is : 1
 
 -------------------------------------------------------------------------------
  **** **** ******  **  PROGRAM ENDED AT                 2025-06-23 14:28:49.228
 ***** ** ***  *** **   PROGRAM RAN ON                     n2cn0189.ab2021.local
 **    ****   ******    PROGRAM RAN BY                                  metdyn02
 ***** **    ** ** **   PROGRAM PROCESS ID                                490803
  **** **  *******  **  PROGRAM STOPPED IN /scratch/hpc-prf-metdyn/metdyn02_Remi
                                           /10_MOL/05_MOL/aUKBqsEOTmq69kFe5R_nOg
                                           /5k_set_final_qzvp/JUTXUR/mini-SZV/TD
                                           DFT/RILIM
