 DBCSR| CPU Multiplication driver                                           XSMM (U)
 DBCSR| Multrec recursion limit                                              512 (U)
 DBCSR| Multiplication stack size                                           1000 (D)
 DBCSR| Maximum elements for images                                    UNLIMITED (U)
 DBCSR| Multiplicative factor virtual images                                   1 (U)
 DBCSR| Use multiplication densification                                       T (D)
 DBCSR| Multiplication size stacks                                             3 (U)
 DBCSR| Use memory pool for CPU allocation                                     F (U)
 DBCSR| Number of 3D layers                                               SINGLE (U)
 DBCSR| Use MPI memory allocation                                              F (U)
 DBCSR| Use RMA algorithm                                                      F (U)
 DBCSR| Use Communication thread                                               T (U)
 DBCSR| Communication thread load                                             60 (D)
 DBCSR| MPI: My process id                                                     0
 DBCSR| MPI: Number of processes                                              80
 DBCSR| OMP: Current number of threads                                         8
 DBCSR| OMP: Max number of threads                                             8
 DBCSR| Split modifier for TAS multiplication algorithm                  1.0E+00 (U)


  **** **** ******  **  PROGRAM STARTED AT               2025-06-16 20:17:00.255
 ***** ** ***  *** **   PROGRAM STARTED ON                             n2lcn0101
 **    ****   ******    PROGRAM STARTED BY                              metdyn02
 ***** **    ** ** **   PROGRAM PROCESS ID                               1250221
  **** **  *******  **  PROGRAM STARTED IN /scratch/hpc-prf-metdyn/metdyn02_Remi
                                           /10_MOL/05_MOL_low_scal/05_MOL/aUKBqs
                                           EOTmq69kFe5R_nOg/5k_set_final_qzvp/TE
                                           DQOI01/aug-cc-pV5Z

 CP2K| version string:                 CP2K version 2025.1 (Development Version)
 CP2K| source code revision number:                                  git:32ddf85
 CP2K| cp2kflags: omp libint fftw3 libxc libgrpp elpa parallel scalapack mpi_f08
 CP2K|             cosma xsmm plumed2 spglib libvori libbqb libvdwxc hdf5
 CP2K| is freely available from                            https://www.cp2k.org/
 CP2K| Program compiled at                         Mon May 19 11:32:37 CEST 2025
 CP2K| Program compiled on                                              n2login1
 CP2K| Program compiled for                                                local
 CP2K| Data directory path    /opt/software/pc2/EB-SW/software/CP2K/2024.1-foss-
 CP2K| Input file name                                                    GW.inp

 GLOBAL| Force Environment number                                              1
 GLOBAL| Basis set file name            /scratch/hpc-prf-metdyn/metdyn02_Remi/BA
 GLOBAL| Potential file name            /pc2/groups/hpc-prf-metdyn/metdyn02_Remi
 GLOBAL| MM Potential file name                                     MM_POTENTIAL
 GLOBAL| Coordinate file name                                      __STD_INPUT__
 GLOBAL| Method name                                                        CP2K
 GLOBAL| Project name                                                       MoS2
 GLOBAL| Run type                                                         ENERGY
 GLOBAL| FFT library                                                       FFTW3
 GLOBAL| Diagonalization library                                            ELPA
 GLOBAL| Cholesky decomposition library                                ScaLAPACK
 GLOBAL| DGEMM library                                                      BLAS
 GLOBAL| Minimum number of eigenvectors for ELPA usage                        16
 GLOBAL| Orthonormality check for eigenvectors                          DISABLED
 GLOBAL| Matrix multiplication library                                     COSMA
 GLOBAL| All-to-all communication in single precision                          F
 GLOBAL| FFTs using library dependent lengths                                  F
 GLOBAL| Grid backend                                                       AUTO
 GLOBAL| Global print level                                               MEDIUM
 GLOBAL| MPI I/O enabled                                                       T
 GLOBAL| Total number of message passing processes                            80
 GLOBAL| Number of threads for this process                                    8
 GLOBAL| This output is from process                                           0
 GLOBAL| OpenMP stack size per thread (OMP_STACKSIZE)                    default
 GLOBAL| CPU model name                          AMD EPYC 7763 64-Core Processor
 GLOBAL| CPUID                                                              1002

 MEMORY| system memory details [Kb]
 MEMORY|                        rank 0           min           max       average
 MEMORY| MemTotal           1056620480    1056620452    1056620528    1056620490
 MEMORY| MemFree            1022588556    1022588556    1042400512    1038499721
 MEMORY| Buffers                149156         13660        151524         73502
 MEMORY| Cached               27268568       9015856      27268568      12502908
 MEMORY| Slab                  2905600       1735848       2905600       1968045
 MEMORY| SReclaimable           731144        397052        731144        506816
 MEMORY| MemLikelyFree      1050737424    1050737424    1051862828    1051582949


 *** Fundamental physical constants (SI units) ***

 *** Literature: B. J. Mohr and B. N. Taylor,
 ***             CODATA recommended values of the fundamental physical
 ***             constants: 2006, Web Version 5.1
 ***             http://physics.nist.gov/constants

 Speed of light in vacuum [m/s]                             2.99792458000000E+08
 Magnetic constant or permeability of vacuum [N/A**2]       1.25663706143592E-06
 Electric constant or permittivity of vacuum [F/m]          8.85418781762039E-12
 Planck constant (h) [J*s]                                  6.62606896000000E-34
 Planck constant (h-bar) [J*s]                              1.05457162825177E-34
 Elementary charge [C]                                      1.60217648700000E-19
 Electron mass [kg]                                         9.10938215000000E-31
 Electron g factor [ ]                                     -2.00231930436220E+00
 Proton mass [kg]                                           1.67262163700000E-27
 Fine-structure constant                                    7.29735253760000E-03
 Rydberg constant [1/m]                                     1.09737315685270E+07
 Avogadro constant [1/mol]                                  6.02214179000000E+23
 Boltzmann constant [J/K]                                   1.38065040000000E-23
 Atomic mass unit [kg]                                      1.66053878200000E-27
 Bohr radius [m]                                            5.29177208590000E-11

 *** Conversion factors ***

 [u] -> [a.u.]                                              1.82288848426455E+03
 [Angstrom] -> [Bohr] = [a.u.]                              1.88972613288564E+00
 [a.u.] = [Bohr] -> [Angstrom]                              5.29177208590000E-01
 [a.u.] -> [s]                                              2.41888432650478E-17
 [a.u.] -> [fs]                                             2.41888432650478E-02
 [a.u.] -> [J]                                              4.35974393937059E-18
 [a.u.] -> [N]                                              8.23872205491840E-08
 [a.u.] -> [K]                                              3.15774647902944E+05
 [a.u.] -> [kJ/mol]                                         2.62549961709828E+03
 [a.u.] -> [kcal/mol]                                       6.27509468713739E+02
 [a.u.] -> [Pa]                                             2.94210107994716E+13
 [a.u.] -> [bar]                                            2.94210107994716E+08
 [a.u.] -> [atm]                                            2.90362800883016E+08
 [a.u.] -> [eV]                                             2.72113838565563E+01
 [a.u.] -> [Hz]                                             6.57968392072181E+15
 [a.u.] -> [1/cm] (wave numbers)                            2.19474631370540E+05
 [a.u./Bohr**2] -> [1/cm]                                   5.14048714338585E+03
 

 CELL_TOP| Volume [angstrom^3]:                                     27000.000000
 CELL_TOP| Vector a [angstrom    30.000     0.000     0.000   |a| =    30.000000
 CELL_TOP| Vector b [angstrom     0.000    30.000     0.000   |b| =    30.000000
 CELL_TOP| Vector c [angstrom     0.000     0.000    30.000   |c| =    30.000000
 CELL_TOP| Angle (b,c), alpha [degree]:                                90.000000
 CELL_TOP| Angle (a,c), beta  [degree]:                                90.000000
 CELL_TOP| Angle (a,b), gamma [degree]:                                90.000000
 CELL_TOP| Numerically orthorhombic:                                         YES
 CELL_TOP| Periodicity                                                      NONE

 GENERATE|  Preliminary Number of Bonds generated:                             0
 GENERATE|  Achieved consistency in connectivity generation.

 CELL| Volume [angstrom^3]:                                         27000.000000
 CELL| Vector a [angstrom]:      30.000     0.000     0.000   |a| =    30.000000
 CELL| Vector b [angstrom]:       0.000    30.000     0.000   |b| =    30.000000
 CELL| Vector c [angstrom]:       0.000     0.000    30.000   |c| =    30.000000
 CELL| Angle (b,c), alpha [degree]:                                    90.000000
 CELL| Angle (a,c), beta  [degree]:                                    90.000000
 CELL| Angle (a,b), gamma [degree]:                                    90.000000
 CELL| Numerically orthorhombic:                                             YES
 CELL| Periodicity                                                          NONE

 CELL_REF| Volume [angstrom^3]:                                     27000.000000
 CELL_REF| Vector a [angstrom    30.000     0.000     0.000   |a| =    30.000000
 CELL_REF| Vector b [angstrom     0.000    30.000     0.000   |b| =    30.000000
 CELL_REF| Vector c [angstrom     0.000     0.000    30.000   |c| =    30.000000
 CELL_REF| Angle (b,c), alpha [degree]:                                90.000000
 CELL_REF| Angle (a,c), beta  [degree]:                                90.000000
 CELL_REF| Angle (a,b), gamma [degree]:                                90.000000
 CELL_REF| Numerically orthorhombic:                                         YES
 CELL_REF| Periodicity                                                      NONE

 *******************************************************************************
 *******************************************************************************
 **                                                                           **
 **     #####                         ##              ##                      **
 **    ##   ##            ##          ##              ##                      **
 **   ##     ##                       ##            ######                    **
 **   ##     ##  ##   ##  ##   #####  ##  ##   ####   ##    #####    #####    **
 **   ##     ##  ##   ##  ##  ##      ## ##   ##      ##   ##   ##  ##   ##   **
 **   ##  ## ##  ##   ##  ##  ##      ####     ###    ##   ######   ######    **
 **    ##  ###   ##   ##  ##  ##      ## ##      ##   ##   ##       ##        **
 **     #######   #####   ##   #####  ##  ##  ####    ##    #####   ##        **
 **           ##                                                    ##        **
 **                                                                           **
 **                                                ... make the atoms dance   **
 **                                                                           **
 **            Copyright (C) by CP2K developers group (2000-2025)             **
 **                      J. Chem. Phys. 152, 194103 (2020)                    **
 **                                                                           **
 *******************************************************************************

 DFT| Spin restricted Kohn-Sham (RKS) calculation                            RKS
 DFT| Multiplicity                                                             1
 DFT| Number of spin states                                                    1
 DFT| Charge                                                                   0
 DFT| Self-interaction correction (SIC)                                       NO
 DFT| Cutoffs: density                                              1.000000E-10
 DFT|          gradient                                             1.000000E-10
 DFT|          tau                                                  1.000000E-10
 DFT|          cutoff_smoothing_range                               0.000000E+00
 DFT| XC density smoothing                                                  NONE
 DFT| XC derivatives                                                          PW

 FUNCTIONAL| PBE:
 FUNCTIONAL| J.P.Perdew, K.Burke, M.Ernzerhof, Phys. Rev. Letter, vol. 77, n 18,
 FUNCTIONAL|  pp. 3865-3868, (1996)sx=0.750sc=1.000{spin unpolarized}           


 QS| Method:                                                                GAPW
 QS| Density plane wave grid type                        NON-SPHERICAL FULLSPACE
 QS| Number of grid levels:                                                    4
 QS| Density cutoff [a.u.]:                                                250.0
 QS| Multi grid cutoff [a.u.]: 1) grid level                               250.0
 QS|                           2) grid level                                83.3
 QS|                           3) grid level                                27.8
 QS|                           4) grid level                                 9.3
 QS| Grid level progression factor:                                          3.0
 QS| Relative density cutoff [a.u.]:                                        50.0
 QS| Interaction thresholds: eps_pgf_orb:                                1.0E-12
 QS|                         eps_filter_matrix:                          0.0E+00
 QS|                         eps_core_charge:                            1.0E-14
 QS|                         eps_rho_gspace:                             1.0E-12
 QS|                         eps_rho_rspace:                             1.0E-12
 QS|                         eps_gvg_rspace:                             1.0E-06
 QS|                         eps_ppl:                                    1.0E-02
 QS|                         eps_ppnl:                                   1.0E-08
 QS| GAPW|      One center basis from orbital basis primitives
 QS| GAPW|                   eps_fit:                                    1.0E-04
 QS| GAPW|                   eps_iso:                                    1.0E-12
 QS| GAPW|                   eps_svd:                                    1.0E-08
 QS| GAPW|                   eps_cpc:                                    1.0E-12
 QS| GAPW|   atom-r-grid: quadrature:                                     GC_LOG
 QS| GAPW|      atom-s-grid:  max l :                                          4
 QS| GAPW|      max_l_rho0 :                                                   2


 ATOMIC KIND INFORMATION

  1. Atomic kind: O                                     Number of atoms:       3

     Orbital Basis Set                                         aug-SZV-MOLOPT-ae

       Number of orbital shell sets:                                           2
       Number of orbital shells:                                               6
       Number of primitive Cartesian functions:                               13
       Number of Cartesian basis functions:                                   15
       Number of spherical basis functions:                                   14
       Norm type:                                                              2

       Normalised Cartesian orbitals:

                        Set   Shell   Orbital            Exponent    Coefficient

                          1       1    1s                0.123000       0.000000
                                                         0.245881       0.059902
                                                         0.536420       0.265853
                                                         1.235135       0.208956
                                                         3.210345      -0.057750
                                                        10.329320      -0.192968
                                                        52.187762      -0.183398

                          1       2    2s                0.123000      -0.253465
                                                         0.245881       0.187097
                                                         0.536420       0.063592
                                                         1.235135       0.074938
                                                         3.210345       0.000000
                                                        10.329320       0.000000
                                                        52.187762       0.000000

                          1       3    2px               0.123000       0.000000
                                                         0.245881       0.025102
                                                         0.536420       0.278668
                                                         1.235135       0.775885
                                                         3.210345       1.065175
                                                        10.329320       0.994565
                                                        52.187762       0.751716
                          1       3    2py               0.123000       0.000000
                                                         0.245881       0.025102
                                                         0.536420       0.278668
                                                         1.235135       0.775885
                                                         3.210345       1.065175
                                                        10.329320       0.994565
                                                        52.187762       0.751716
                          1       3    2pz               0.123000       0.000000
                                                         0.245881       0.025102
                                                         0.536420       0.278668
                                                         1.235135       0.775885
                                                         3.210345       1.065175
                                                        10.329320       0.994565
                                                        52.187762       0.751716

                          1       4    3px               0.123000       0.048536
                                                         0.245881       0.257066
                                                         0.536420      -0.539300
                                                         1.235135      -0.153605
                                                         3.210345       0.000000
                                                        10.329320       0.000000
                                                        52.187762       0.000000
                          1       4    3py               0.123000       0.048536
                                                         0.245881       0.257066
                                                         0.536420      -0.539300
                                                         1.235135      -0.153605
                                                         3.210345       0.000000
                                                        10.329320       0.000000
                                                        52.187762       0.000000
                          1       4    3pz               0.123000       0.048536
                                                         0.245881       0.257066
                                                         0.536420      -0.539300
                                                         1.235135      -0.153605
                                                         3.210345       0.000000
                                                        10.329320       0.000000
                                                        52.187762       0.000000

                          1       5    3dx2              0.123000       0.022065
                                                         0.245881       0.038414
                                                         0.536420       0.100211
                                                         1.235135       0.626583
                                                         3.210345       0.000000
                                                        10.329320       0.000000
                                                        52.187762       0.000000
                          1       5    3dxy              0.123000       0.038217
                                                         0.245881       0.066534
                                                         0.536420       0.173571
                                                         1.235135       1.085274
                                                         3.210345       0.000000
                                                        10.329320       0.000000
                                                        52.187762       0.000000
                          1       5    3dxz              0.123000       0.038217
                                                         0.245881       0.066534
                                                         0.536420       0.173571
                                                         1.235135       1.085274
                                                         3.210345       0.000000
                                                        10.329320       0.000000
                                                        52.187762       0.000000
                          1       5    3dy2              0.123000       0.022065
                                                         0.245881       0.038414
                                                         0.536420       0.100211
                                                         1.235135       0.626583
                                                         3.210345       0.000000
                                                        10.329320       0.000000
                                                        52.187762       0.000000
                          1       5    3dyz              0.123000       0.038217
                                                         0.245881       0.066534
                                                         0.536420       0.173571
                                                         1.235135       1.085274
                                                         3.210345       0.000000
                                                        10.329320       0.000000
                                                        52.187762       0.000000
                          1       5    3dz2              0.123000       0.022065
                                                         0.245881       0.038414
                                                         0.536420       0.100211
                                                         1.235135       0.626583
                                                         3.210345       0.000000
                                                        10.329320       0.000000
                                                        52.187762       0.000000

                          2       1    1s             1355.584234       1.459053
                                                       248.544885       2.202176
                                                        69.533902       2.892385
                                                        23.886772       2.853580
                                                         9.275933       1.577736
                                                         3.820341       0.253831

     RI Auxiliary Basis Set                                    aug-cc-pV5Z-RIFIT

       Number of orbital shell sets:                                          46
       Number of orbital shells:                                              46
       Number of primitive Cartesian functions:                               46
       Number of Cartesian basis functions:                                  371
       Number of spherical basis functions:                                  242
       Norm type:                                                              2

       Normalised Cartesian orbitals:

                        Set   Shell   Orbital            Exponent    Coefficient

                          1       1    1s                0.096630       0.123522

                          2       1    1dx2              0.140000       0.052739
                          2       1    1dxy              0.140000       0.091347
                          2       1    1dxz              0.140000       0.091347
                          2       1    1dy2              0.140000       0.052739
                          2       1    1dyz              0.140000       0.091347
                          2       1    1dz2              0.140000       0.052739

                          3       1    1px               0.169976       0.155570
                          3       1    1py               0.169976       0.155570
                          3       1    1pz               0.169976       0.155570

                          4       1    1fx3              0.238692       0.058626
                          4       1    1fx2y             0.238692       0.131092
                          4       1    1fx2z             0.238692       0.131092
                          4       1    1fxy2             0.238692       0.131092
                          4       1    1fxyz             0.238692       0.227057
                          4       1    1fxz2             0.238692       0.131092
                          4       1    1fy3              0.238692       0.058626
                          4       1    1fy2z             0.238692       0.131092
                          4       1    1fyz2             0.238692       0.131092
                          4       1    1fz3              0.238692       0.058626

                          5       1    1s                0.251005       0.252739

                          6       1    1dx2              0.303063       0.203747
                          6       1    1dxy              0.303063       0.352901
                          6       1    1dxz              0.303063       0.352901
                          6       1    1dy2              0.303063       0.203747
                          6       1    1dyz              0.303063       0.352901
                          6       1    1dz2              0.303063       0.203747

                          7       1    1gx4              0.410343       0.096070
                          7       1    1gx3y             0.410343       0.254178
                          7       1    1gx3z             0.410343       0.254178
                          7       1    1gx2y2            0.410343       0.328143
                          7       1    1gx2yz            0.410343       0.568360
                          7       1    1gx2z2            0.410343       0.328143
                          7       1    1gxy3             0.410343       0.254178
                          7       1    1gxy2z            0.410343       0.568360
                          7       1    1gxyz2            0.410343       0.568360
                          7       1    1gxz3             0.410343       0.254178
                          7       1    1gy4              0.410343       0.096070
                          7       1    1gy3z             0.410343       0.254178
                          7       1    1gy2z2            0.410343       0.328143
                          7       1    1gyz3             0.410343       0.254178
                          7       1    1gz4              0.410343       0.096070

                          8       1    1px               0.416519       0.476962
                          8       1    1py               0.416519       0.476962
                          8       1    1pz               0.416519       0.476962

                          9       1    1s                0.474911       0.407727

                         10       1    1fx3              0.621013       0.504001
                         10       1    1fx2y             0.621013       1.126979
                         10       1    1fx2z             0.621013       1.126979
                         10       1    1fxy2             0.621013       1.126979
                         10       1    1fxyz             0.621013       1.951986
                         10       1    1fxz2             0.621013       1.126979
                         10       1    1fy3              0.621013       0.504001
                         10       1    1fy2z             0.621013       1.126979
                         10       1    1fyz2             0.621013       1.126979
                         10       1    1fz3              0.621013       0.504001

                         11       1    1px               0.696641       0.907197
                         11       1    1py               0.696641       0.907197
                         11       1    1pz               0.696641       0.907197

                         12       1    1dx2              0.719024       0.924082
                         12       1    1dxy              0.719024       1.600557
                         12       1    1dxz              0.719024       1.600557
                         12       1    1dy2              0.719024       0.924082
                         12       1    1dyz              0.719024       1.600557
                         12       1    1dz2              0.719024       0.924082

                         13       1    1hx5              0.790781       0.345961
                         13       1    1hx4y             0.790781       1.037882
                         13       1    1hx4z             0.790781       1.037882
                         13       1    1hx3y2            0.790781       1.585392
                         13       1    1hx3yz            0.790781       2.745979
                         13       1    1hx3z2            0.790781       1.585392
                         13       1    1hx2y3            0.790781       1.585392
                         13       1    1hx2y2z           0.790781       3.545043
                         13       1    1hx2yz2           0.790781       3.545043
                         13       1    1hx2z3            0.790781       1.585392
                         13       1    1hxy4             0.790781       1.037882
                         13       1    1hxy3z            0.790781       2.745979
                         13       1    1hxy2z2           0.790781       3.545043
                         13       1    1hxyz3            0.790781       2.745979
                         13       1    1hxz4             0.790781       1.037882
                         13       1    1hy5              0.790781       0.345961
                         13       1    1hy4z             0.790781       1.037882
                         13       1    1hy3z2            0.790781       1.585392
                         13       1    1hy2z3            0.790781       1.585392
                         13       1    1hyz4             0.790781       1.037882
                         13       1    1hz5              0.790781       0.345961

                         14       1    1gx4              1.007810       1.136912
                         14       1    1gx3y             1.007810       3.007986
                         14       1    1gx3z             1.007810       3.007986
                         14       1    1gx2y2            1.007810       3.883293
                         14       1    1gx2yz            1.007810       6.726061
                         14       1    1gx2z2            1.007810       3.883293
                         14       1    1gxy3             1.007810       3.007986
                         14       1    1gxy2z            1.007810       6.726061
                         14       1    1gxyz2            1.007810       6.726061
                         14       1    1gxz3             1.007810       3.007986
                         14       1    1gy4              1.007810       1.136912
                         14       1    1gy3z             1.007810       3.007986
                         14       1    1gy2z2            1.007810       3.883293
                         14       1    1gyz3             1.007810       3.007986
                         14       1    1gz4              1.007810       1.136912

                         15       1    1s                1.058590       0.743800

                         16       1    1fx3              1.185310       2.158124
                         16       1    1fx2y             1.185310       4.825711
                         16       1    1fx2z             1.185310       4.825711
                         16       1    1fxy2             1.185310       4.825711
                         16       1    1fxyz             1.185310       8.358377
                         16       1    1fxz2             1.185310       4.825711
                         16       1    1fy3              1.185310       2.158124
                         16       1    1fy2z             1.185310       4.825711
                         16       1    1fyz2             1.185310       4.825711
                         16       1    1fz3              1.185310       2.158124

                         17       1    1px               1.274280       1.929839
                         17       1    1py               1.274280       1.929839
                         17       1    1pz               1.274280       1.929839

                         18       1    1ix6              1.382920       1.508922
                         18       1    1ix5y             1.382920       5.004528
                         18       1    1ix5z             1.382920       5.004528
                         18       1    1ix4y2            1.382920       8.668097
                         18       1    1ix4yz            1.382920      15.013584
                         18       1    1ix4z2            1.382920       8.668097
                         18       1    1ix3y3            1.382920      10.256231
                         18       1    1ix3y2z           1.382920      22.933629
                         18       1    1ix3yz2           1.382920      22.933629
                         18       1    1ix3z3            1.382920      10.256231
                         18       1    1ix2y4            1.382920       8.668097
                         18       1    1ix2y3z           1.382920      22.933629
                         18       1    1ix2y2z2          1.382920      29.607187
                         18       1    1ix2yz3           1.382920      22.933629
                         18       1    1ix2z4            1.382920       8.668097
                         18       1    1ixy5             1.382920       5.004528
                         18       1    1ixy4z            1.382920      15.013584
                         18       1    1ixy3z2           1.382920      22.933629
                         18       1    1ixy2z3           1.382920      22.933629
                         18       1    1ixyz4            1.382920      15.013584
                         18       1    1ixz5             1.382920       5.004528
                         18       1    1iy6              1.382920       1.508922
                         18       1    1iy5z             1.382920       5.004528
                         18       1    1iy4z2            1.382920       8.668097
                         18       1    1iy3z3            1.382920      10.256231
                         18       1    1iy2z4            1.382920       8.668097
                         18       1    1iyz5             1.382920       5.004528
                         18       1    1iz6              1.382920       1.508922

                         19       1    1dx2              1.442130       3.123685
                         19       1    1dxy              1.442130       5.410380
                         19       1    1dxz              1.442130       5.410380
                         19       1    1dy2              1.442130       3.123685
                         19       1    1dyz              1.442130       5.410380
                         19       1    1dz2              1.442130       3.123685

                         20       1    1hx5              1.724010       4.356106
                         20       1    1hx4y             1.724010      13.068318
                         20       1    1hx4z             1.724010      13.068318
                         20       1    1hx3y2            1.724010      19.962186
                         20       1    1hx3yz            1.724010      34.575521
                         20       1    1hx3z2            1.724010      19.962186
                         20       1    1hx2y3            1.724010      19.962186
                         20       1    1hx2y2z           1.724010      44.636805
                         20       1    1hx2yz2           1.724010      44.636805
                         20       1    1hx2z3            1.724010      19.962186
                         20       1    1hxy4             1.724010      13.068318
                         20       1    1hxy3z            1.724010      34.575521
                         20       1    1hxy2z2           1.724010      44.636805
                         20       1    1hxyz3            1.724010      34.575521
                         20       1    1hxz4             1.724010      13.068318
                         20       1    1hy5              1.724010       4.356106
                         20       1    1hy4z             1.724010      13.068318
                         20       1    1hy3z2            1.724010      19.962186
                         20       1    1hy2z3            1.724010      19.962186
                         20       1    1hyz4             1.724010      13.068318
                         20       1    1hz5              1.724010       4.356106

                         21       1    1s                1.940030       1.171565

                         22       1    1gx4              2.038250       7.886665
                         22       1    1gx3y             2.038250      20.866155
                         22       1    1gx3z             2.038250      20.866155
                         22       1    1gx2y2            2.038250      26.938091
                         22       1    1gx2yz            2.038250      46.658142
                         22       1    1gx2z2            2.038250      26.938091
                         22       1    1gxy3             2.038250      20.866155
                         22       1    1gxy2z            2.038250      46.658142
                         22       1    1gxyz2            2.038250      46.658142
                         22       1    1gxz3             2.038250      20.866155
                         22       1    1gy4              2.038250       7.886665
                         22       1    1gy3z             2.038250      20.866155
                         22       1    1gy2z2            2.038250      26.938091
                         22       1    1gyz3             2.038250      20.866155
                         22       1    1gz4              2.038250       7.886665

                         23       1    1fx3              2.093740       7.763019
                         23       1    1fx2y             2.093740      17.358638
                         23       1    1fx2z             2.093740      17.358638
                         23       1    1fxy2             2.093740      17.358638
                         23       1    1fxyz             2.093740      30.066042
                         23       1    1fxz2             2.093740      17.358638
                         23       1    1fy3              2.093740       7.763019
                         23       1    1fy2z             2.093740      17.358638
                         23       1    1fyz2             2.093740      17.358638
                         23       1    1fz3              2.093740       7.763019

                         24       1    1dx2              2.719410       9.478512
                         24       1    1dxy              2.719410      16.417264
                         24       1    1dxz              2.719410      16.417264
                         24       1    1dy2              2.719410       9.478512
                         24       1    1dyz              2.719410      16.417264
                         24       1    1dz2              2.719410       9.478512

                         25       1    1px               2.756880       5.063635
                         25       1    1py               2.756880       5.063635
                         25       1    1pz               2.756880       5.063635

                         26       1    1hx5              3.223120      33.284552
                         26       1    1hx4y             3.223120      99.853655
                         26       1    1hx4z             3.223120      99.853655
                         26       1    1hx3y2            3.223120     152.528977
                         26       1    1hx3yz            3.223120     264.187938
                         26       1    1hx3z2            3.223120     152.528977
                         26       1    1hx2y3            3.223120     152.528977
                         26       1    1hx2y2z           3.223120     341.065161
                         26       1    1hx2yz2           3.223120     341.065161
                         26       1    1hx2z3            3.223120     152.528977
                         26       1    1hxy4             3.223120      99.853655
                         26       1    1hxy3z            3.223120     264.187938
                         26       1    1hxy2z2           3.223120     341.065161
                         26       1    1hxyz3            3.223120     264.187938
                         26       1    1hxz4             3.223120      99.853655
                         26       1    1hy5              3.223120      33.284552
                         26       1    1hy4z             3.223120      99.853655
                         26       1    1hy3z2            3.223120     152.528977
                         26       1    1hy2z3            3.223120     152.528977
                         26       1    1hyz4             3.223120      99.853655
                         26       1    1hz5              3.223120      33.284552

                         27       1    1ix6              3.261230      37.658080
                         27       1    1ix5y             3.261230     124.897723
                         27       1    1ix5z             3.261230     124.897723
                         27       1    1ix4y2            3.261230     216.329201
                         27       1    1ix4yz            3.261230     374.693168
                         27       1    1ix4z2            3.261230     216.329201
                         27       1    1ix3y3            3.261230     255.964163
                         27       1    1ix3y2z           3.261230     572.353268
                         27       1    1ix3yz2           3.261230     572.353268
                         27       1    1ix3z3            3.261230     255.964163
                         27       1    1ix2y4            3.261230     216.329201
                         27       1    1ix2y3z           3.261230     572.353268
                         27       1    1ix2y2z2          3.261230     738.904892
                         27       1    1ix2yz3           3.261230     572.353268
                         27       1    1ix2z4            3.261230     216.329201
                         27       1    1ixy5             3.261230     124.897723
                         27       1    1ixy4z            3.261230     374.693168
                         27       1    1ixy3z2           3.261230     572.353268
                         27       1    1ixy2z3           3.261230     572.353268
                         27       1    1ixyz4            3.261230     374.693168
                         27       1    1ixz5             3.261230     124.897723
                         27       1    1iy6              3.261230      37.658080
                         27       1    1iy5z             3.261230     124.897723
                         27       1    1iy4z2            3.261230     216.329201
                         27       1    1iy3z3            3.261230     255.964163
                         27       1    1iy2z4            3.261230     216.329201
                         27       1    1iyz5             3.261230     124.897723
                         27       1    1iz6              3.261230      37.658080

                         28       1    1s                3.595370       1.860878

                         29       1    1fx3              3.721040      28.310609
                         29       1    1fx2y             3.721040      63.304446
                         29       1    1fx2z             3.721040      63.304446
                         29       1    1fxy2             3.721040      63.304446
                         29       1    1fxyz             3.721040     109.646517
                         29       1    1fxz2             3.721040      63.304446
                         29       1    1fy3              3.721040      28.310609
                         29       1    1fy2z             3.721040      63.304446
                         29       1    1fyz2             3.721040      63.304446
                         29       1    1fz3              3.721040      28.310609

                         30       1    1gx4              3.883140      46.418255
                         30       1    1gx3y             3.883140     122.811159
                         30       1    1gx3z             3.883140     122.811159
                         30       1    1gx2y2            3.883140     158.548524
                         30       1    1gx2yz            3.883140     274.614099
                         30       1    1gx2z2            3.883140     158.548524
                         30       1    1gxy3             3.883140     122.811159
                         30       1    1gxy2z            3.883140     274.614099
                         30       1    1gxyz2            3.883140     274.614099
                         30       1    1gxz3             3.883140     122.811159
                         30       1    1gy4              3.883140      46.418255
                         30       1    1gy3z             3.883140     122.811159
                         30       1    1gy2z2            3.883140     158.548524
                         30       1    1gyz3             3.883140     122.811159
                         30       1    1gz4              3.883140      46.418255

                         31       1    1dx2              4.518780      23.051360
                         31       1    1dxy              4.518780      39.926127
                         31       1    1dxz              4.518780      39.926127
                         31       1    1dy2              4.518780      23.051360
                         31       1    1dyz              4.518780      39.926127
                         31       1    1dz2              4.518780      23.051360

                         32       1    1px               4.708760       9.887199
                         32       1    1py               4.708760       9.887199
                         32       1    1pz               4.708760       9.887199

                         33       1    1hx5              5.427550     181.053374
                         33       1    1hx4y             5.427550     543.160123
                         33       1    1hx4z             5.427550     543.160123
                         33       1    1hx3y2            5.427550     829.690793
                         33       1    1hx3yz            5.427550    1437.066608
                         33       1    1hx3z2            5.427550     829.690793
                         33       1    1hx2y3            5.427550     829.690793
                         33       1    1hx2y2z           5.427550    1855.245014
                         33       1    1hx2yz2           5.427550    1855.245014
                         33       1    1hx2z3            5.427550     829.690793
                         33       1    1hxy4             5.427550     543.160123
                         33       1    1hxy3z            5.427550    1437.066608
                         33       1    1hxy2z2           5.427550    1855.245014
                         33       1    1hxyz3            5.427550    1437.066608
                         33       1    1hxz4             5.427550     543.160123
                         33       1    1hy5              5.427550     181.053374
                         33       1    1hy4z             5.427550     543.160123
                         33       1    1hy3z2            5.427550     829.690793
                         33       1    1hy2z3            5.427550     829.690793
                         33       1    1hyz4             5.427550     543.160123
                         33       1    1hz5              5.427550     181.053374

                         34       1    1s                5.831540       2.674530

                         35       1    1fx3              6.442910      97.361912
                         35       1    1fx2y             6.442910     217.707854
                         35       1    1fx2z             6.442910     217.707854
                         35       1    1fxy2             6.442910     217.707854
                         35       1    1fxyz             6.442910     377.081065
                         35       1    1fxz2             6.442910     217.707854
                         35       1    1fy3              6.442910      97.361912
                         35       1    1fy2z             6.442910     217.707854
                         35       1    1fyz2             6.442910     217.707854
                         35       1    1fz3              6.442910      97.361912

                         36       1    1gx4              7.014070     235.968042
                         36       1    1gx3y             7.014070     624.312756
                         36       1    1gx3z             7.014070     624.312756
                         36       1    1gx2y2            7.014070     805.984303
                         36       1    1gx2yz            7.014070    1396.005762
                         36       1    1gx2z2            7.014070     805.984303
                         36       1    1gxy3             7.014070     624.312756
                         36       1    1gxy2z            7.014070    1396.005762
                         36       1    1gxyz2            7.014070    1396.005762
                         36       1    1gxz3             7.014070     624.312756
                         36       1    1gy4              7.014070     235.968042
                         36       1    1gy3z             7.014070     624.312756
                         36       1    1gy2z2            7.014070     805.984303
                         36       1    1gyz3             7.014070     624.312756
                         36       1    1gz4              7.014070     235.968042

                         37       1    1dx2              7.274420      53.034271
                         37       1    1dxy              7.274420      91.858053
                         37       1    1dxz              7.274420      91.858053
                         37       1    1dy2              7.274420      53.034271
                         37       1    1dyz              7.274420      91.858053
                         37       1    1dz2              7.274420      53.034271

                         38       1    1px              11.049300      28.714982
                         38       1    1py              11.049300      28.714982
                         38       1    1pz              11.049300      28.714982

                         39       1    1fx3             14.098700     567.031722
                         39       1    1fx2y            14.098700    1267.921477
                         39       1    1fx2z            14.098700    1267.921477
                         39       1    1fxy2            14.098700    1267.921477
                         39       1    1fxyz            14.098700    2196.104418
                         39       1    1fxz2            14.098700    1267.921477
                         39       1    1fy3             14.098700     567.031722
                         39       1    1fy2z            14.098700    1267.921477
                         39       1    1fyz2            14.098700    1267.921477
                         39       1    1fz3             14.098700     567.031722

                         40       1    1s               14.825500       5.384769

                         41       1    1dx2             21.988200     367.486504
                         41       1    1dxy             21.988200     636.505295
                         41       1    1dxz             21.988200     636.505295
                         41       1    1dy2             21.988200     367.486504
                         41       1    1dyz             21.988200     636.505295
                         41       1    1dz2             21.988200     367.486504

                         42       1    1px              25.465100      81.540209
                         42       1    1py              25.465100      81.540209
                         42       1    1pz              25.465100      81.540209

                         43       1    1s               28.708200       8.839233

                         44       1    1px              94.256600     418.629472
                         44       1    1py              94.256600     418.629472
                         44       1    1pz              94.256600     418.629472

                         45       1    1s              105.279000      23.424288

                         46       1    1s              488.561000      74.062640

       Atomic covalent radius [Angstrom]:                                  0.730

       Atomic van der Waals radius [Angstrom]:                             1.520

     The atoms of this atomic kind are PAW atoms (GAPW):
       Hard Gaussian function radius:                                      1.512
       Rho0 radius:                                                        1.512
       Maximum GTO radius used for PAW projector construction:            24.566

     GAPW Soft Basis Set                                  aug-SZV-MOLOPT-ae_soft

       Number of orbital shell sets:                                           2
       Number of orbital shells:                                               6
       Number of primitive Cartesian functions:                                6
       Number of Cartesian basis functions:                                   15
       Number of spherical basis functions:                                   14
       Norm type:                                                              2

       Normalised Cartesian orbitals:

                        Set   Shell   Orbital            Exponent    Coefficient

                          1       1    1s                0.123000       0.000000
                                                         0.245881       0.059902
                                                         0.536420       0.265853
                                                         1.235135       0.208956
                                                         3.210345      -0.057750

                          1       2    2s                0.123000      -0.253465
                                                         0.245881       0.187097
                                                         0.536420       0.063592
                                                         1.235135       0.074938
                                                         3.210345       0.000000

                          1       3    2px               0.123000       0.000000
                                                         0.245881       0.025102
                                                         0.536420       0.278668
                                                         1.235135       0.775885
                                                         3.210345       1.065175
                          1       3    2py               0.123000       0.000000
                                                         0.245881       0.025102
                                                         0.536420       0.278668
                                                         1.235135       0.775885
                                                         3.210345       1.065175
                          1       3    2pz               0.123000       0.000000
                                                         0.245881       0.025102
                                                         0.536420       0.278668
                                                         1.235135       0.775885
                                                         3.210345       1.065175

                          1       4    3px               0.123000       0.048536
                                                         0.245881       0.257066
                                                         0.536420      -0.539300
                                                         1.235135      -0.153605
                                                         3.210345       0.000000
                          1       4    3py               0.123000       0.048536
                                                         0.245881       0.257066
                                                         0.536420      -0.539300
                                                         1.235135      -0.153605
                                                         3.210345       0.000000
                          1       4    3pz               0.123000       0.048536
                                                         0.245881       0.257066
                                                         0.536420      -0.539300
                                                         1.235135      -0.153605
                                                         3.210345       0.000000

                          1       5    3dx2              0.123000       0.022065
                                                         0.245881       0.038414
                                                         0.536420       0.100211
                                                         1.235135       0.626583
                                                         3.210345       0.000000
                          1       5    3dxy              0.123000       0.038217
                                                         0.245881       0.066534
                                                         0.536420       0.173571
                                                         1.235135       1.085274
                                                         3.210345       0.000000
                          1       5    3dxz              0.123000       0.038217
                                                         0.245881       0.066534
                                                         0.536420       0.173571
                                                         1.235135       1.085274
                                                         3.210345       0.000000
                          1       5    3dy2              0.123000       0.022065
                                                         0.245881       0.038414
                                                         0.536420       0.100211
                                                         1.235135       0.626583
                                                         3.210345       0.000000
                          1       5    3dyz              0.123000       0.038217
                                                         0.245881       0.066534
                                                         0.536420       0.173571
                                                         1.235135       1.085274
                                                         3.210345       0.000000
                          1       5    3dz2              0.123000       0.022065
                                                         0.245881       0.038414
                                                         0.536420       0.100211
                                                         1.235135       0.626583
                                                         3.210345       0.000000

                          2       1    1s                3.820341       0.253831

     AE Potential information for                                            ALL

       Description:                                       All-electron potential
                                          Krack, Parrinello, PCCP 2, 2105 (2000)

       Gaussian exponent of the core charge distribution:               8.154466
       Electronic configuration (s p d ...):                           4   4   0

  2. Atomic kind: C                                     Number of atoms:       7

     Orbital Basis Set                                         aug-SZV-MOLOPT-ae

       Number of orbital shell sets:                                           2
       Number of orbital shells:                                               6
       Number of primitive Cartesian functions:                               13
       Number of Cartesian basis functions:                                   15
       Number of spherical basis functions:                                   14
       Norm type:                                                              2

       Normalised Cartesian orbitals:

                        Set   Shell   Orbital            Exponent    Coefficient

                          1       1    2s                0.070000       0.000000
                                                         0.143687       0.040037
                                                         0.313471       0.177689
                                                         0.721783       0.139661
                                                         1.876046      -0.038599
                                                         6.036200      -0.128975
                                                        30.497239      -0.122578

                          1       2    3s                0.070000      -0.142268
                                                         0.143687       0.288819
                                                         0.313471       0.010360
                                                         0.721783       0.175994
                                                         1.876046       0.000000
                                                         6.036200       0.000000
                                                        30.497239       0.000000

                          1       3    3px               0.070000       0.000000
                                                         0.143687       0.012825
                                                         0.313471       0.142381
                                                         0.721783       0.396426
                                                         1.876046       0.544234
                                                         6.036200       0.508157
                                                        30.497239       0.384077
                          1       3    3py               0.070000       0.000000
                                                         0.143687       0.012825
                                                         0.313471       0.142381
                                                         0.721783       0.396426
                                                         1.876046       0.544234
                                                         6.036200       0.508157
                                                        30.497239       0.384077
                          1       3    3pz               0.070000       0.000000
                                                         0.143687       0.012825
                                                         0.313471       0.142381
                                                         0.721783       0.396426
                                                         1.876046       0.544234
                                                         6.036200       0.508157
                                                        30.497239       0.384077

                          1       4    4px               0.070000       0.076505
                                                         0.143687      -0.086104
                                                         0.313471       0.010230
                                                         0.721783       0.129894
                                                         1.876046       0.000000
                                                         6.036200       0.000000
                                                        30.497239       0.000000
                          1       4    4py               0.070000       0.076505
                                                         0.143687      -0.086104
                                                         0.313471       0.010230
                                                         0.721783       0.129894
                                                         1.876046       0.000000
                                                         6.036200       0.000000
                                                        30.497239       0.000000
                          1       4    4pz               0.070000       0.076505
                                                         0.143687      -0.086104
                                                         0.313471       0.010230
                                                         0.721783       0.129894
                                                         1.876046       0.000000
                                                         6.036200       0.000000
                                                        30.497239       0.000000

                          1       5    4dx2              0.070000       0.004316
                                                         0.143687       0.012639
                                                         0.313471       0.125057
                                                         0.721783       0.080411
                                                         1.876046       0.000000
                                                         6.036200       0.000000
                                                        30.497239       0.000000
                          1       5    4dxy              0.070000       0.007476
                                                         0.143687       0.021892
                                                         0.313471       0.216606
                                                         0.721783       0.139276
                                                         1.876046       0.000000
                                                         6.036200       0.000000
                                                        30.497239       0.000000
                          1       5    4dxz              0.070000       0.007476
                                                         0.143687       0.021892
                                                         0.313471       0.216606
                                                         0.721783       0.139276
                                                         1.876046       0.000000
                                                         6.036200       0.000000
                                                        30.497239       0.000000
                          1       5    4dy2              0.070000       0.004316
                                                         0.143687       0.012639
                                                         0.313471       0.125057
                                                         0.721783       0.080411
                                                         1.876046       0.000000
                                                         6.036200       0.000000
                                                        30.497239       0.000000
                          1       5    4dyz              0.070000       0.007476
                                                         0.143687       0.021892
                                                         0.313471       0.216606
                                                         0.721783       0.139276
                                                         1.876046       0.000000
                                                         6.036200       0.000000
                                                        30.497239       0.000000
                          1       5    4dz2              0.070000       0.004316
                                                         0.143687       0.012639
                                                         0.313471       0.125057
                                                         0.721783       0.080411
                                                         1.876046       0.000000
                                                         6.036200       0.000000
                                                        30.497239       0.000000

                          2       1    1s              742.737049       0.929185
                                                       136.180025       1.402437
                                                        38.098264       1.841991
                                                        13.087782       1.817278
                                                         5.082369       1.004768
                                                         2.093200       0.161650

     RI Auxiliary Basis Set                                    aug-cc-pV5Z-RIFIT

       Number of orbital shell sets:                                          46
       Number of orbital shells:                                              46
       Number of primitive Cartesian functions:                               46
       Number of Cartesian basis functions:                                  371
       Number of spherical basis functions:                                  242
       Norm type:                                                              2

       Normalised Cartesian orbitals:

                        Set   Shell   Orbital            Exponent    Coefficient

                          1       1    1s                0.062545       0.089136

                          2       1    1dx2              0.084789       0.021928
                          2       1    1dxy              0.084789       0.037981
                          2       1    1dxz              0.084789       0.037981
                          2       1    1dy2              0.084789       0.021928
                          2       1    1dyz              0.084789       0.037981
                          2       1    1dz2              0.084789       0.021928

                          3       1    1px               0.090000       0.070266
                          3       1    1py               0.090000       0.070266
                          3       1    1pz               0.090000       0.070266

                          4       1    1s                0.118498       0.143944

                          5       1    1fx3              0.135351       0.016358
                          5       1    1fx2y             0.135351       0.036579
                          5       1    1fx2z             0.135351       0.036579
                          5       1    1fxy2             0.135351       0.036579
                          5       1    1fxyz             0.135351       0.063356
                          5       1    1fxz2             0.135351       0.036579
                          5       1    1fy3              0.135351       0.016358
                          5       1    1fy2z             0.135351       0.036579
                          5       1    1fyz2             0.135351       0.036579
                          5       1    1fz3              0.135351       0.016358

                          6       1    1dx2              0.211749       0.108792
                          6       1    1dxy              0.211749       0.188433
                          6       1    1dxz              0.211749       0.188433
                          6       1    1dy2              0.211749       0.108792
                          6       1    1dyz              0.211749       0.188433
                          6       1    1dz2              0.211749       0.108792

                          7       1    1px               0.223793       0.219406
                          7       1    1py               0.223793       0.219406
                          7       1    1pz               0.223793       0.219406

                          8       1    1gx4              0.241717       0.022415
                          8       1    1gx3y             0.241717       0.059303
                          8       1    1gx3z             0.241717       0.059303
                          8       1    1gx2y2            0.241717       0.076560
                          8       1    1gx2yz            0.241717       0.132606
                          8       1    1gx2z2            0.241717       0.076560
                          8       1    1gxy3             0.241717       0.059303
                          8       1    1gxy2z            0.241717       0.132606
                          8       1    1gxyz2            0.241717       0.132606
                          8       1    1gxz3             0.241717       0.059303
                          8       1    1gy4              0.241717       0.022415
                          8       1    1gy3z             0.241717       0.059303
                          8       1    1gy2z2            0.241717       0.076560
                          8       1    1gyz3             0.241717       0.059303
                          8       1    1gz4              0.241717       0.022415

                          9       1    1s                0.257433       0.257578

                         10       1    1fx3              0.334627       0.125377
                         10       1    1fx2y             0.334627       0.280351
                         10       1    1fx2z             0.334627       0.280351
                         10       1    1fxy2             0.334627       0.280351
                         10       1    1fxyz             0.334627       0.485582
                         10       1    1fxz2             0.334627       0.280351
                         10       1    1fy3              0.334627       0.125377
                         10       1    1fy2z             0.334627       0.280351
                         10       1    1fyz2             0.334627       0.280351
                         10       1    1fz3              0.334627       0.125377

                         11       1    1px               0.353612       0.388686
                         11       1    1py               0.353612       0.388686
                         11       1    1pz               0.353612       0.388686

                         12       1    1dx2              0.413013       0.350224
                         12       1    1dxy              0.413013       0.606606
                         12       1    1dxz              0.413013       0.606606
                         12       1    1dy2              0.413013       0.350224
                         12       1    1dyz              0.413013       0.606606
                         12       1    1dz2              0.413013       0.350224

                         13       1    1hx5              0.475436       0.066205
                         13       1    1hx4y             0.475436       0.198616
                         13       1    1hx4z             0.475436       0.198616
                         13       1    1hx3y2            0.475436       0.303391
                         13       1    1hx3yz            0.475436       0.525489
                         13       1    1hx3z2            0.475436       0.303391
                         13       1    1hx2y3            0.475436       0.303391
                         13       1    1hx2y2z           0.475436       0.678403
                         13       1    1hx2yz2           0.475436       0.678403
                         13       1    1hx2z3            0.475436       0.303391
                         13       1    1hxy4             0.475436       0.198616
                         13       1    1hxy3z            0.475436       0.525489
                         13       1    1hxy2z2           0.475436       0.678403
                         13       1    1hxyz3            0.475436       0.525489
                         13       1    1hxz4             0.475436       0.198616
                         13       1    1hy5              0.475436       0.066205
                         13       1    1hy4z             0.475436       0.198616
                         13       1    1hy3z2            0.475436       0.303391
                         13       1    1hy2z3            0.475436       0.303391
                         13       1    1hyz4             0.475436       0.198616
                         13       1    1hz5              0.475436       0.066205

                         14       1    1s                0.555806       0.458778

[...]
 pw_poisson_solve                    95  8.0    0.380    0.439   30.050   30.085
 fft_wrap_pw1pw2                   1986 10.0    0.022    0.025   26.221   26.657
 fft_wrap_pw1pw2_250               1416 11.1    0.932    0.991   25.329   25.741
 ps_wavelet_solve                    95  9.0   12.577   16.823   23.082   23.443
 fft3d_ps                          1986 12.0    6.435    7.321   21.944   22.554
 qs_rho_update_rho_low               95  5.0    0.001    0.001   16.924   16.925
 calculate_rho_elec                  95  6.0    0.294    0.349   16.442   16.443
 qs_vxc_create                       95  8.0    0.001    0.001   16.012   16.013
 xc_vxc_pw_create                    94  9.0    0.371    0.444   16.011   16.012
 mp_alltoall_d54                     95 10.0    5.044   15.695    5.044   15.695
 mp_alltoall_z22v                  1986 14.0   13.803   14.775   13.803   14.775
 hfx_ks_matrix                       95  8.0    0.001    0.002   12.522   12.531
 integrate_four_center               95  9.0    1.957    2.886   12.514   12.523
 xc_pw_derive                       564 11.0    0.002    0.003   11.642   12.050
 qs_energies_properties               1  3.0    0.000    0.000    9.172    9.186
 post_scf_bandstructure               1  4.0    0.000    0.000    9.172    9.186
 gw                                   1  5.0    0.000    0.000    9.099    9.104
 density_rs2pw                       95  7.0    0.003    0.003    8.578    9.075
 xc_pw_divergence                    94 10.0    0.001    0.002    7.989    8.400
 yz_to_x                            947 12.8    0.705    0.847    7.756    8.322
 grid_collocate_task_list            95  7.0    7.412    8.246    7.412    8.246
 xc_rho_set_and_dset_create          94 10.0    0.235    0.250    7.450    8.146
 gspace_mixing                       93  5.0    0.288    0.341    8.095    8.096
 x_to_yz                           1039 13.1    0.932    1.092    7.683    8.029
 sum_up_and_integrate                95  8.0    0.001    0.001    8.020    8.028
 integrate_v_rspace                  95  9.0    0.002    0.002    7.975    7.984
 potential_pw2rs                     95 10.0    0.014    0.015    6.883    6.904
 mp_alltoall_d45                     96 10.0    5.488    6.512    5.488    6.512
 integrate_four_center_main          95 10.0    0.027    0.060    6.108    6.401
 integrate_four_center_bin         8095 11.0    6.081    6.386    6.081    6.386
 transfer_rs2pw                     476  8.4    0.006    0.007    5.916    6.378
 gw_calc_large_cell_Gamma             1  6.0    0.000    0.000    6.282    6.287
 mp_waitany                       14872 11.5    5.241    6.149    5.241    6.149
 transfer_pw2rs                     476 10.6    0.004    0.005    6.048    6.090
 broyden_mixing                      93  6.0    5.916    6.008    6.041    6.066
 mp_bcast_dm                       7122  9.8    5.704    5.926    5.704    5.926
 fm_read                             91  8.3    0.001    0.086    5.866    5.888
 cp_fm_read_unformatted              91  9.3    0.521    2.931    5.865    5.872
 get_W_MIC                            1  7.0    0.000    0.000    5.622    5.626
 read_W_MIC_time                      1  8.0    0.000    0.000    5.622    5.626
 prepare_gapw_den                    95  8.0    0.001    0.001    4.982    5.001
 transfer_rs2pw_250                 191 10.0    1.066    1.144    3.279    3.782
 put_rho0_on_grid                    95  9.0    0.308    0.391    3.601    3.620
 mp_sync                            586 10.5    2.132    3.462    2.132    3.462
 transfer_pw2rs_250                 191 11.0    1.075    1.187    3.342    3.459
 mp_alltoall_d11v                  2081  9.7    2.467    3.417    2.467    3.417
 create_and_init_bs_env_for_gw        1  6.0    0.000    0.000    2.818    2.823
 mp_waitall_1                     42994 12.0    2.097    2.794    2.097    2.794
 mp_sum_d                          5524  6.8    2.248    2.637    2.248    2.637
 integrate_vhg0_rspace               95  8.0    0.107    0.140    2.306    2.315
 xc_functional_eval                 470 10.7    0.001    0.001    1.598    2.268
 pbe_lda_eval                       470 11.7    1.597    2.267    1.597    2.267
 check_sparsity_3c                    1  7.0    0.000    0.000    1.836    1.836
 transfer_pw2rs_30                   95 12.0    0.906    0.982    1.586    1.678
 qs_scf_new_mos                      94  5.0    0.001    0.001    1.554    1.615
 calculate_vxc_atom                  95  8.0    0.050    0.160    1.550    1.550
 powell_optimize                 974879 11.0    1.405    1.503    1.405    1.503
 transfer_rs2pw_90                   95  9.0    0.212    0.245    1.249    1.406
 pw_scatter_p                      1039 12.1    1.308    1.350    1.308    1.350
 calc_screening_functions             1 10.0    0.478    0.489    1.257    1.340
 gaVxcgb_GC                         188  9.0    0.158    1.327    0.158    1.327
 calculate_rho_atom                 380  9.0    0.570    1.185    0.570    1.185
 pw_derive                          849 11.3    1.111    1.172    1.111    1.172
 build_3c_integrals                   5  8.0    0.675    1.106    0.954    1.159
 mp_sum_dm                         5793  7.7    1.062    1.133    1.062    1.133
 transfer_rs2pw_30                   95  9.0    0.403    0.441    1.066    1.125
 eigensolver_symm                    94  6.0    0.006    0.007    1.090    1.093
 grid_integrate_task_list            95 10.0    0.135    1.045    0.135    1.045
 rs_gather_matrices                  95 10.0    0.003    0.004    0.955    1.039
 pw_gather_p                        947 11.8    0.962    1.030    0.962    1.030
 calc_pair_dist_radii                 1 10.0    0.320    0.327    0.946    1.014
 pw_copy                           1420 10.6    0.963    1.006    0.963    1.006
 transfer_pw2rs_90                   95 12.0    0.176    0.212    0.794    0.991
 mp_sendrecv_dv                   15010 10.0    0.884    0.955    0.884    0.955
 cp2k_distribution_to_z_slices       95  9.0    0.356    0.404    0.912    0.945
 cp_fm_diag_elpa                     98  7.0    0.000    0.000    0.878    0.882
 mp_sum_dv                         7845  8.7    0.709    0.805    0.709    0.805
 cp_fm_redistribute_end              98  8.0    0.416    0.796    0.423    0.801
 cp_fm_diag_elpa_base                98  8.0    0.363    0.730    0.373    0.752
 rs_grid_zero                       477 11.2    0.688    0.725    0.688    0.725
 fft_wrap_pw1pw2_90                 190 10.5    0.029    0.031    0.636    0.676
 pw_poisson_set                      96  9.0    0.001    0.002    0.641    0.676
 pw_copy_to_array                   947 11.8    0.544    0.661    0.544    0.661
 compute_V_xc                         1  7.0    0.000    0.000    0.658    0.658
 integrate_four_center_getP          95 10.0    0.009    0.010    0.653    0.655
 pw_copy_from_array                1039 12.1    0.473    0.566    0.473    0.566
 pw_integral_ab_c1d_c1d_gs           95  9.0    0.417    0.425    0.477    0.493
 calculate_rho_atom_coeff            95  6.0    0.061    0.069    0.481    0.482
 pw_axpy                            945  9.3    0.410    0.434    0.410    0.434
 get_Sigma_c                          1  7.0    0.000    0.000    0.423    0.430
 create_qs_kind_set                   1  2.0    0.000    0.000    0.396    0.396
 read_qs_kind                         4  3.0    0.226    0.252    0.396    0.396
 qs_energies_init_hamiltonians        1  3.0    0.000    0.000    0.392    0.392
 build_core_hamiltonian_matrix        1  4.0    0.000    0.000    0.389    0.389
 overlap_condnum                      1  5.0    0.000    0.000    0.386    0.387
 pw_poisson_rebuild                  95  9.0    0.000    0.000    0.369    0.384
 ps_wavelet_create                    1 10.0    0.000    0.000    0.368    0.383
 RS_z_slice_distribution              1 11.0    0.255    0.282    0.368    0.383
 calculate_dm_sparse                 94  6.0    0.000    0.001    0.311    0.369
 cp_dbcsr_plus_fm_fm_t               94  7.0    0.001    0.001    0.309    0.368
 arnoldi_conjugate_gradient           5  6.0    0.007    0.010    0.359    0.359
 mp_isend_dv                      15200 11.6    0.173    0.355    0.173    0.355
 transfer_rs2pw_10                   95  9.0    0.096    0.103    0.317    0.351
 transfer_pw2rs_10                   95 12.0    0.153    0.163    0.322    0.350
 dbcsr_complete_redistribute        407  8.7    0.012    0.015    0.323    0.332
 pw_zero                            566 10.3    0.248    0.324    0.248    0.324
 scale_and_distribute               190 10.0    0.086    0.283    0.086    0.283
 mp_isendrecv_dv                  30020 12.0    0.064    0.274    0.064    0.274
 dbcsr_multiply_generic              94  8.0    0.003    0.004    0.208    0.264
 integrate_four_center_dist_KS       95 10.0    0.008    0.010    0.241    0.243
 copy_dbcsr_to_fm                   159  7.1    0.002    0.002    0.230    0.240
 init_scf_run                         1  3.0    0.000    0.000    0.238    0.238
 compute_QP_energies                  1  7.0    0.000    0.000    0.234    0.234
 scf_env_initial_rho_setup            1  4.0    0.000    0.000    0.223    0.223
 update_ks_atom                      95  8.0    0.055    0.083    0.197    0.219
 check_for_restart_files              1  7.0    0.212    0.217    0.212    0.217
 dbcsr_sym_matrix_vector_mult      2495  7.0    0.018    0.019    0.208    0.216
 copy_fm_to_dbcsr                   248  8.0    0.001    0.001    0.204    0.213
 Vh_1c_gg_integrals                  95  8.0    0.021    0.133    0.190    0.205
 parallel_gemm_fm                   189  7.0    0.000    0.000    0.197    0.205
 parallel_gemm_fm_cosma             189  8.0    0.196    0.204    0.196    0.204
 calculate_rho0_atom                380  9.0    0.193    0.199    0.193    0.199
 qs_init_subsys                       1  2.0    0.001    0.001    0.192    0.193
 parallel_gemm_cfm                  132  9.8    0.000    0.000    0.188    0.191
 parallel_gemm_cfm_cosma            132 10.8    0.188    0.191    0.188    0.191
 qs_env_setup                         1  3.0    0.000    0.000    0.187    0.188
 qs_env_rebuild_pw_env                2  3.5    0.000    0.000    0.187    0.188
 pw_env_rebuild                       1  5.0    0.000    0.000    0.187    0.188
 to_ikp_and_mo                       62  8.0    0.001    0.001    0.183    0.183
 fm_Gamma_ao_to_cfm_ikp_mo           62  9.0    0.000    0.000    0.179    0.181
 multiply_cannon                     94  9.0    0.006    0.011    0.121    0.177
 integrate_four_center_load          95 10.0    0.000    0.000    0.134    0.177
 hfx_load_balance                     1 11.0    0.000    0.000    0.134    0.176
 parser_read_line                100734  4.0    0.015    0.015    0.170    0.172
 pw_grid_setup                        4  6.0    0.000    0.000    0.166    0.167
 pw_grid_setup_internal               4  7.0    0.003    0.003    0.166    0.167
 fft_wrap_pw1pw2_30                 190 10.5    0.006    0.006    0.158    0.164
 multiply_cannon_loop                94 10.0    0.006    0.006    0.106    0.163
 parser_read_line_low               116  5.0    0.005    0.061    0.155    0.158
 broadcast_input_information        116  6.0    0.018    0.019    0.150    0.154
 mp_sum_l                           907  5.7    0.118    0.154    0.118    0.154
 abc_contract_xsmm                 9398  9.0    0.056    0.144    0.056    0.144
 mp_max_d                           101  7.0    0.066    0.142    0.066    0.142
 self_consistency_check              94  5.0    0.000    0.000    0.065    0.142
 cp_sm_mix                           94  6.0    0.000    0.000    0.064    0.141
 mp_alltoall_i22                    567  9.5    0.125    0.140    0.125    0.140
 multiply_cannon_metrocomm3        1880 11.0    0.003    0.003    0.064    0.139
 hfx_load_balance_range               1 12.0    0.000    0.000    0.096    0.139
 dbcsr_add_d                       3820  7.0    0.002    0.002    0.025    0.134
 dbcsr_add_anytype                 3820  8.1    0.003    0.017    0.023    0.132
 pw_grid_sort                         4  8.0    0.083    0.088    0.112    0.118
 mp_max_i                           562  3.1    0.088    0.118    0.088    0.118
 multiply_cannon_metrocomm1        1880 11.0    0.001    0.001    0.020    0.117
 dbcsr_desymmetrize_deep            160  8.1    0.003    0.003    0.102    0.112
 setup_time_and_frequency_minim       1  7.0    0.000    0.000    0.101    0.105
 mp_alltoall_i11v                  1381  9.6    0.103    0.104    0.103    0.104
 cp_fm_redistribute_start            98  8.0    0.065    0.070    0.082    0.093
 mp_bcast_i_src                     464  7.0    0.074    0.088    0.074    0.088
 dbcsr_finalize                    6190 10.9    0.007    0.024    0.030    0.086
 cp_cfm_geeig                         2  7.0    0.000    0.000    0.083    0.083
 dbcsr_col_vec_to_rep_row          2495  8.0    0.008    0.009    0.075    0.082
 fft_wrap_pw1pw2_10                 190 10.5    0.002    0.002    0.076    0.080
 pw_scale                           377  9.5    0.053    0.079    0.053    0.079
 fill_fm_Sigma_c_Gamma_time           1  8.0    0.000    0.000    0.071    0.071
 make_m2s                           188  9.0    0.003    0.003    0.065    0.068
 mp_bcast_dv                       2593  9.0    0.055    0.065    0.055    0.065
 mp_rank_compare                   1986 13.0    0.058    0.064    0.058    0.064
 mp_bcast_am_src                    116  7.0    0.055    0.062    0.057    0.064
 mp_irecv_dv                      15200 11.6    0.013    0.063    0.013    0.063
 mp_isend_dm3                      3432 11.5    0.034    0.061    0.034    0.061
 cp_fm_symm                          94  7.0    0.055    0.060    0.055    0.060
 dos_pdos_ldos                        1  5.0    0.000    0.000    0.050    0.059
 multiply_cannon_metrocomm4        1786 11.0    0.003    0.003    0.007    0.057
 scf_post_calculation_gpw             1  3.0    0.000    0.000    0.053    0.053
 write_available_results              1  4.0    0.000    0.000    0.052    0.053
 write_mo_free_results                1  5.0    0.004    0.005    0.052    0.052
 cp_cfm_heevd                         2  8.0    0.000    0.000    0.052    0.052
 cp_cfm_heevd_base                    2  9.0    0.052    0.052    0.052    0.052
 vxc_of_r_new                       376  9.0    0.001    0.008    0.006    0.052
 dbcsr_iterator_start             32941  8.9    0.026    0.038    0.031    0.051
 dbcsr_rep_row_to_rep_col_vec      2495  8.0    0.007    0.007    0.039    0.046
 hybrid_alltoall_any                348 10.7    0.002    0.002    0.037    0.039
 get_l_sq_wghts_cos_tf_t_to_w         1  8.0    0.035    0.038    0.035    0.038
 dbcsr_merge_all                   4886 11.6    0.011    0.028    0.015    0.037
 mp_irecv_dm3                      3432 11.5    0.008    0.036    0.008    0.036
 get_l_sq_wghts_sin_tf_t_to_w         1  8.0    0.034    0.035    0.034    0.035
 get_l_sq_wghts_cos_tf_w_to_t         1  8.0    0.030    0.031    0.031    0.033
 sort_shells                          4  9.0    0.029    0.033    0.029    0.033
 dbcsr_copy                       10853  7.6    0.018    0.019    0.031    0.032
 xc_pw_smooth                        94 10.0    0.000    0.000    0.028    0.031
 hfx_load_balance_redist              1 12.0    0.003    0.003    0.031    0.031
 dbcsr_work_create                 5610 10.6    0.006    0.021    0.010    0.031
 make_images                        188 10.0    0.005    0.005    0.028    0.031
 offload_free_buffer                103  8.6    0.021    0.031    0.021    0.031
 cp_fm_uplo_to_full                  99  8.9    0.010    0.030    0.010    0.030
 mp_cart_sub                        324  9.1    0.029    0.029    0.029    0.029
 rs_scatter_matrices                 95  7.0    0.001    0.001    0.029    0.029
 mp_cart_create                     566  9.2    0.027    0.029    0.028    0.029
 write_mo_set_to_restart             94  5.0    0.001    0.022    0.023    0.029
 mixing_init                          1  5.0    0.027    0.029    0.028    0.029
 mp_isendrecv_lv                    158 13.0    0.001    0.026    0.001    0.026
 dbcsr_iterator_stop              32941  8.9    0.015    0.021    0.018    0.025
 hirshfeld_integration                1  6.0    0.001    0.011    0.025    0.025
 dbcsr_crop_matrix                  564 10.0    0.002    0.002    0.024    0.025
 dbcsr_work_destroy_all            5610 11.6    0.005    0.015    0.007    0.023
 dbcsr_create_new                 14425  9.1    0.016    0.017    0.022    0.023
 create_and_init_bs_env               1  5.0    0.000    0.000    0.023    0.023
 write_mo_set_low                     5  6.0    0.000    0.000    0.022    0.022
 cp_fm_write_unformatted              5  7.0    0.022    0.022    0.022    0.022
 pw_grid_remap                        4  8.0    0.003    0.003    0.017    0.022
 calculate_hirshfeld_normalizat       1  6.0    0.001    0.010    0.021    0.022
 cp_fm_power                          1  6.0    0.000    0.000    0.021    0.021
 cp_cfm_cholesky_decompose            3  7.7    0.021    0.021    0.021    0.021
 mp_sum_im3                           5  9.0    0.014    0.019    0.014    0.019
 dbcsr_copy_submatrix               564 11.0    0.002    0.003    0.018    0.019
 mp_maxloc_dv                      1369  1.0    0.016    0.019    0.016    0.019
 diagonalize_ks_matrix                1  6.0    0.000    0.000    0.019    0.019
 cp_fm_geeig_canon                    1  7.0    0.000    0.000    0.019    0.019
 compute_max_radius                   1  6.0    0.017    0.018    0.017    0.018
 mp_bcast_b_src                     192  7.0    0.011    0.018    0.011    0.018
 make_images_sizes                  188 11.0    0.000    0.000    0.013    0.017
 mp_alltoall_i44                    188 12.0    0.013    0.017    0.013    0.017
 dbcsr_data_release               91938 10.5    0.009    0.016    0.009    0.016
 create_fast_col_vec_access        4990  8.0    0.010    0.010    0.015    0.016
 pw_grid_assign                       4  8.0    0.013    0.014    0.015    0.015
 dbcsr_data_new                   55857 11.0    0.008    0.015    0.008    0.015
 create_fast_row_vec_access        4990  8.0    0.009    0.009    0.014    0.015
 mp_sum_i                             8  5.0    0.014    0.014    0.014    0.014
 restraint_control                    1  2.0    0.000    0.000    0.014    0.014
 write_dos_pdos                       2  6.0    0.000    0.014    0.000    0.014
 dbcsr_iterator_seek              32941  9.9    0.005    0.014    0.005    0.014
 dbcsr_sym_matrix_vector_mult_l    2495  8.0    0.005    0.007    0.011    0.013
 dbcsr_scale_anytype               3821  9.0    0.003    0.005    0.010    0.012
 compute_proj_mo_on_kind              1  6.0    0.000    0.000    0.012    0.012
 mp_sum_im                          108  8.9    0.009    0.012    0.009    0.012
 delete_unnecessary_files             1  8.0    0.000    0.000    0.000    0.012
 -------------------------------------------------------------------------------

 The number of warnings for this run is : 1
 
 -------------------------------------------------------------------------------
  **** **** ******  **  PROGRAM ENDED AT                 2025-06-16 20:18:56.210
 ***** ** ***  *** **   PROGRAM RAN ON                                 n2lcn0101
 **    ****   ******    PROGRAM RAN BY                                  metdyn02
 ***** **    ** ** **   PROGRAM PROCESS ID                               1250221
  **** **  *******  **  PROGRAM STOPPED IN /scratch/hpc-prf-metdyn/metdyn02_Remi
                                           /10_MOL/05_MOL_low_scal/05_MOL/aUKBqs
                                           EOTmq69kFe5R_nOg/5k_set_final_qzvp/TE
                                           DQOI01/aug-cc-pV5Z
