 DBCSR| CPU Multiplication driver                                           BLAS (U)
 DBCSR| Multrec recursion limit                                              512 (U)
 DBCSR| Multiplication stack size                                           1000 (D)
 DBCSR| Maximum elements for images                                    UNLIMITED (U)
 DBCSR| Multiplicative factor virtual images                                   1 (U)
 DBCSR| Use multiplication densification                                       T (D)
 DBCSR| Multiplication size stacks                                             3 (U)
 DBCSR| Use memory pool for CPU allocation                                     F (U)
 DBCSR| Number of 3D layers                                               SINGLE (U)
 DBCSR| Use MPI memory allocation                                              F (U)
 DBCSR| Use RMA algorithm                                                      F (U)
 DBCSR| Use Communication thread                                               T (U)
 DBCSR| Communication thread load                                             75 (D)
 DBCSR| MPI: My process id                                                     0
 DBCSR| MPI: Number of processes                                             192
 DBCSR| OMP: Current number of threads                                         4
 DBCSR| OMP: Max number of threads                                             4
 DBCSR| Split modifier for TAS multiplication algorithm                  1.0E+00 (U)


  **** **** ******  **  PROGRAM STARTED AT               2025-04-20 16:05:10.103
 ***** ** ***  *** **   PROGRAM STARTED ON                          i01r02c06s10
 **    ****   ******    PROGRAM STARTED BY                               di38fab
 ***** **    ** ** **   PROGRAM PROCESS ID                               2570458
  **** **  *******  **  PROGRAM STARTED IN /hppfs/scratch/04/di38fab/05_MOL/W4-1
                                           1+ALK/ch2f2/SZV/TDDFT/1e-4

 CP2K| version string:                 CP2K version 2025.1 (Development Version)
 CP2K| source code revision number:                             unknown revision
 CP2K| cp2kflags: omp libint fftw3 libxc parallel scalapack max_contr=4         
 CP2K| is freely available from                            https://www.cp2k.org/
 CP2K| Program compiled at                         Thu Apr 10 16:20:23 CEST 2025
 CP2K| Program compiled on                                               login01
 CP2K| Program compiled for                                        Supermuc-foss
 CP2K| Data directory path                  /hppfs/work/pn36zo/di38fab/cp2k/data
 CP2K| Input file name                                                    GW.inp

 GLOBAL| Force Environment number                                              1
 GLOBAL| Basis set file name            /hppfs/scratch/04/di38fab/04_TMD/BASIS_A
 GLOBAL| Potential file name            /hppfs/work/pn36zo/di38fab/cp2k/data/ALL
 GLOBAL| MM Potential file name                                     MM_POTENTIAL
 GLOBAL| Coordinate file name                                      __STD_INPUT__
 GLOBAL| Method name                                                        CP2K
 GLOBAL| Project name                                                       MoS2
 GLOBAL| Run type                                                         ENERGY
 GLOBAL| FFT library                                                       FFTW3
 GLOBAL| Diagonalization library                                       ScaLAPACK
 GLOBAL| DGEMM library                                                      BLAS
 GLOBAL| Orthonormality check for eigenvectors                          DISABLED
 GLOBAL| Matrix multiplication library                                 ScaLAPACK
 GLOBAL| All-to-all communication in single precision                          F
 GLOBAL| FFTs using library dependent lengths                                  F
 GLOBAL| Grid backend                                                       AUTO
 GLOBAL| Global print level                                               MEDIUM
 GLOBAL| MPI I/O enabled                                                       T
 GLOBAL| Total number of message passing processes                           192
 GLOBAL| Number of threads for this process                                    4
 GLOBAL| This output is from process                                           0
 GLOBAL| OpenMP stack size per thread (OMP_STACKSIZE)                    default
 GLOBAL| CPU model name             Intel(R) Xeon(R) Platinum 8174 CPU @ 3.10GHz

 MEMORY| system memory details [Kb]
 MEMORY|                        rank 0           min           max       average
 MEMORY| MemTotal             98436664      98436660      98436900      98436692
 MEMORY| MemFree              85027852      83759052      85107776      84111751
 MEMORY| Buffers                     0             0             0             0
 MEMORY| Cached                2385708       2367740       2402936       2392576
 MEMORY| Slab                  1015296       1015296       1269456       1200174
 MEMORY| SReclaimable           224308        224308        281788        266560
 MEMORY| MemLikelyFree        87637868      86412668      87706988      86770888


 *** Fundamental physical constants (SI units) ***

 *** Literature: B. J. Mohr and B. N. Taylor,
 ***             CODATA recommended values of the fundamental physical
 ***             constants: 2006, Web Version 5.1
 ***             http://physics.nist.gov/constants

 Speed of light in vacuum [m/s]                             2.99792458000000E+08
 Magnetic constant or permeability of vacuum [N/A**2]       1.25663706143592E-06
 Electric constant or permittivity of vacuum [F/m]          8.85418781762039E-12
 Planck constant (h) [J*s]                                  6.62606896000000E-34
 Planck constant (h-bar) [J*s]                              1.05457162825177E-34
 Elementary charge [C]                                      1.60217648700000E-19
 Electron mass [kg]                                         9.10938215000000E-31
 Electron g factor [ ]                                     -2.00231930436220E+00
 Proton mass [kg]                                           1.67262163700000E-27
 Fine-structure constant                                    7.29735253760000E-03
 Rydberg constant [1/m]                                     1.09737315685270E+07
 Avogadro constant [1/mol]                                  6.02214179000000E+23
 Boltzmann constant [J/K]                                   1.38065040000000E-23
 Atomic mass unit [kg]                                      1.66053878200000E-27
 Bohr radius [m]                                            5.29177208590000E-11

 *** Conversion factors ***

 [u] -> [a.u.]                                              1.82288848426455E+03
 [Angstrom] -> [Bohr] = [a.u.]                              1.88972613288564E+00
 [a.u.] = [Bohr] -> [Angstrom]                              5.29177208590000E-01
 [a.u.] -> [s]                                              2.41888432650478E-17
 [a.u.] -> [fs]                                             2.41888432650478E-02
 [a.u.] -> [J]                                              4.35974393937059E-18
 [a.u.] -> [N]                                              8.23872205491840E-08
 [a.u.] -> [K]                                              3.15774647902944E+05
 [a.u.] -> [kJ/mol]                                         2.62549961709828E+03
 [a.u.] -> [kcal/mol]                                       6.27509468713739E+02
 [a.u.] -> [Pa]                                             2.94210107994716E+13
 [a.u.] -> [bar]                                            2.94210107994716E+08
 [a.u.] -> [atm]                                            2.90362800883016E+08
 [a.u.] -> [eV]                                             2.72113838565563E+01
 [a.u.] -> [Hz]                                             6.57968392072181E+15
 [a.u.] -> [1/cm] (wave numbers)                            2.19474631370540E+05
 [a.u./Bohr**2] -> [1/cm]                                   5.14048714338585E+03
 

 CELL_TOP| Volume [angstrom^3]:                                     27000.000000
 CELL_TOP| Vector a [angstrom    30.000     0.000     0.000   |a| =    30.000000
 CELL_TOP| Vector b [angstrom     0.000    30.000     0.000   |b| =    30.000000
 CELL_TOP| Vector c [angstrom     0.000     0.000    30.000   |c| =    30.000000
 CELL_TOP| Angle (b,c), alpha [degree]:                                90.000000
 CELL_TOP| Angle (a,c), beta  [degree]:                                90.000000
 CELL_TOP| Angle (a,b), gamma [degree]:                                90.000000
 CELL_TOP| Numerically orthorhombic:                                         YES
 CELL_TOP| Periodicity                                                      NONE

 GENERATE|  Preliminary Number of Bonds generated:                             0
 GENERATE|  Achieved consistency in connectivity generation.

 CELL| Volume [angstrom^3]:                                         27000.000000
 CELL| Vector a [angstrom]:      30.000     0.000     0.000   |a| =    30.000000
 CELL| Vector b [angstrom]:       0.000    30.000     0.000   |b| =    30.000000
 CELL| Vector c [angstrom]:       0.000     0.000    30.000   |c| =    30.000000
 CELL| Angle (b,c), alpha [degree]:                                    90.000000
 CELL| Angle (a,c), beta  [degree]:                                    90.000000
 CELL| Angle (a,b), gamma [degree]:                                    90.000000
 CELL| Numerically orthorhombic:                                             YES
 CELL| Periodicity                                                          NONE

 CELL_REF| Volume [angstrom^3]:                                     27000.000000
 CELL_REF| Vector a [angstrom    30.000     0.000     0.000   |a| =    30.000000
 CELL_REF| Vector b [angstrom     0.000    30.000     0.000   |b| =    30.000000
 CELL_REF| Vector c [angstrom     0.000     0.000    30.000   |c| =    30.000000
 CELL_REF| Angle (b,c), alpha [degree]:                                90.000000
 CELL_REF| Angle (a,c), beta  [degree]:                                90.000000
 CELL_REF| Angle (a,b), gamma [degree]:                                90.000000
 CELL_REF| Numerically orthorhombic:                                         YES
 CELL_REF| Periodicity                                                      NONE

 *******************************************************************************
 *******************************************************************************
 **                                                                           **
 **     #####                         ##              ##                      **
 **    ##   ##            ##          ##              ##                      **
 **   ##     ##                       ##            ######                    **
 **   ##     ##  ##   ##  ##   #####  ##  ##   ####   ##    #####    #####    **
 **   ##     ##  ##   ##  ##  ##      ## ##   ##      ##   ##   ##  ##   ##   **
 **   ##  ## ##  ##   ##  ##  ##      ####     ###    ##   ######   ######    **
 **    ##  ###   ##   ##  ##  ##      ## ##      ##   ##   ##       ##        **
 **     #######   #####   ##   #####  ##  ##  ####    ##    #####   ##        **
 **           ##                                                    ##        **
 **                                                                           **
 **                                                ... make the atoms dance   **
 **                                                                           **
 **            Copyright (C) by CP2K developers group (2000-2025)             **
 **                      J. Chem. Phys. 152, 194103 (2020)                    **
 **                                                                           **
 *******************************************************************************

 DFT| Spin restricted Kohn-Sham (RKS) calculation                            RKS
 DFT| Multiplicity                                                             1
 DFT| Number of spin states                                                    1
 DFT| Charge                                                                   0
 DFT| Self-interaction correction (SIC)                                       NO
 DFT| Cutoffs: density                                              1.000000E-10
 DFT|          gradient                                             1.000000E-10
 DFT|          tau                                                  1.000000E-10
 DFT|          cutoff_smoothing_range                               0.000000E+00
 DFT| XC density smoothing                                                  NONE
 DFT| XC derivatives                                                          PW

 FUNCTIONAL| PBE:
 FUNCTIONAL| J.P.Perdew, K.Burke, M.Ernzerhof, Phys. Rev. Letter, vol. 77, n 18,
 FUNCTIONAL|  pp. 3865-3868, (1996)sx=0.750sc=1.000{spin unpolarized}           


 QS| Method:                                                                GAPW
 QS| Density plane wave grid type                        NON-SPHERICAL FULLSPACE
 QS| Number of grid levels:                                                    4
 QS| Density cutoff [a.u.]:                                                250.0
 QS| Multi grid cutoff [a.u.]: 1) grid level                               250.0
 QS|                           2) grid level                                83.3
 QS|                           3) grid level                                27.8
 QS|                           4) grid level                                 9.3
 QS| Grid level progression factor:                                          3.0
 QS| Relative density cutoff [a.u.]:                                        50.0
 QS| Interaction thresholds: eps_pgf_orb:                                1.0E-12
 QS|                         eps_filter_matrix:                          0.0E+00
 QS|                         eps_core_charge:                            1.0E-14
 QS|                         eps_rho_gspace:                             1.0E-12
 QS|                         eps_rho_rspace:                             1.0E-12
 QS|                         eps_gvg_rspace:                             1.0E-06
 QS|                         eps_ppl:                                    1.0E-02
 QS|                         eps_ppnl:                                   1.0E-08
 QS| GAPW|      One center basis from orbital basis primitives
 QS| GAPW|                   eps_fit:                                    1.0E-04
 QS| GAPW|                   eps_iso:                                    1.0E-12
 QS| GAPW|                   eps_svd:                                    1.0E-08
 QS| GAPW|                   eps_cpc:                                    1.0E-12
 QS| GAPW|   atom-r-grid: quadrature:                                     GC_LOG
 QS| GAPW|      atom-s-grid:  max l :                                          4
 QS| GAPW|      max_l_rho0 :                                                   2


 ATOMIC KIND INFORMATION

  1. Atomic kind: C                                     Number of atoms:       1

     Orbital Basis Set                                         aug-SZV-MOLOPT-ae

       Number of orbital shell sets:                                           2
       Number of orbital shells:                                               6
       Number of primitive Cartesian functions:                               13
       Number of Cartesian basis functions:                                   15
       Number of spherical basis functions:                                   14
       Norm type:                                                              2

       Normalised Cartesian orbitals:

                        Set   Shell   Orbital            Exponent    Coefficient

                          1       1    2s                0.070000       0.000000
                                                         0.143687       0.040037
                                                         0.313471       0.177689
                                                         0.721783       0.139661
                                                         1.876046      -0.038599
                                                         6.036200      -0.128975
                                                        30.497239      -0.122578

                          1       2    3s                0.070000      -0.142268
                                                         0.143687       0.288819
                                                         0.313471       0.010360
                                                         0.721783       0.175994
                                                         1.876046       0.000000
                                                         6.036200       0.000000
                                                        30.497239       0.000000

                          1       3    3px               0.070000       0.000000
                                                         0.143687       0.012825
                                                         0.313471       0.142381
                                                         0.721783       0.396426
                                                         1.876046       0.544234
                                                         6.036200       0.508157
                                                        30.497239       0.384077
                          1       3    3py               0.070000       0.000000
                                                         0.143687       0.012825
                                                         0.313471       0.142381
                                                         0.721783       0.396426
                                                         1.876046       0.544234
                                                         6.036200       0.508157
                                                        30.497239       0.384077
                          1       3    3pz               0.070000       0.000000
                                                         0.143687       0.012825
                                                         0.313471       0.142381
                                                         0.721783       0.396426
                                                         1.876046       0.544234
                                                         6.036200       0.508157
                                                        30.497239       0.384077

                          1       4    4px               0.070000       0.076505
                                                         0.143687      -0.086104
                                                         0.313471       0.010230
                                                         0.721783       0.129894
                                                         1.876046       0.000000
                                                         6.036200       0.000000
                                                        30.497239       0.000000
                          1       4    4py               0.070000       0.076505
                                                         0.143687      -0.086104
                                                         0.313471       0.010230
                                                         0.721783       0.129894
                                                         1.876046       0.000000
                                                         6.036200       0.000000
                                                        30.497239       0.000000
                          1       4    4pz               0.070000       0.076505
                                                         0.143687      -0.086104
                                                         0.313471       0.010230
                                                         0.721783       0.129894
                                                         1.876046       0.000000
                                                         6.036200       0.000000
                                                        30.497239       0.000000

                          1       5    4dx2              0.070000       0.004316
                                                         0.143687       0.012639
                                                         0.313471       0.125057
                                                         0.721783       0.080411
                                                         1.876046       0.000000
                                                         6.036200       0.000000
                                                        30.497239       0.000000
                          1       5    4dxy              0.070000       0.007476
                                                         0.143687       0.021892
                                                         0.313471       0.216606
                                                         0.721783       0.139276
                                                         1.876046       0.000000
                                                         6.036200       0.000000
                                                        30.497239       0.000000
                          1       5    4dxz              0.070000       0.007476
                                                         0.143687       0.021892
                                                         0.313471       0.216606
                                                         0.721783       0.139276
                                                         1.876046       0.000000
                                                         6.036200       0.000000
                                                        30.497239       0.000000
                          1       5    4dy2              0.070000       0.004316
                                                         0.143687       0.012639
                                                         0.313471       0.125057
                                                         0.721783       0.080411
                                                         1.876046       0.000000
                                                         6.036200       0.000000
                                                        30.497239       0.000000
                          1       5    4dyz              0.070000       0.007476
                                                         0.143687       0.021892
                                                         0.313471       0.216606
                                                         0.721783       0.139276
                                                         1.876046       0.000000
                                                         6.036200       0.000000
                                                        30.497239       0.000000
                          1       5    4dz2              0.070000       0.004316
                                                         0.143687       0.012639
                                                         0.313471       0.125057
                                                         0.721783       0.080411
                                                         1.876046       0.000000
                                                         6.036200       0.000000
                                                        30.497239       0.000000

                          2       1    1s              742.737049       0.929185
                                                       136.180025       1.402437
                                                        38.098264       1.841991
                                                        13.087782       1.817278
                                                         5.082369       1.004768
                                                         2.093200       0.161650

     RI Auxiliary Basis Set             RI_aug-SZV-MOLOPT-ae_N_RI_048_s_p_d_f_g_

       Number of orbital shell sets:                                          14
       Number of orbital shells:                                              14
       Number of primitive Cartesian functions:                               14
       Number of Cartesian basis functions:                                   62
       Number of spherical basis functions:                                   48
       Norm type:                                                              2

       Normalised Cartesian orbitals:

                        Set   Shell   Orbital            Exponent    Coefficient

                          1       1    1s                0.182132       0.198701

                          2       1    7px               0.213594       0.206979
                          2       1    7py               0.213594       0.206979
                          2       1    7pz               0.213594       0.206979

                          3       1   10dx2              0.381125       0.304282
                          3       1   10dxy              0.381125       0.527033
                          3       1   10dxz              0.381125       0.527033
                          3       1   10dy2              0.381125       0.304282
                          3       1   10dyz              0.381125       0.527033
                          3       1   10dz2              0.381125       0.304282

                          4       1    2s                0.433905       0.381027

                          5       1   12fx3              0.524446       0.344573
                          5       1   12fx2y             0.524446       0.770488
                          5       1   12fx2z             0.524446       0.770488
                          5       1   12fxy2             0.524446       0.770488
                          5       1   12fxyz             0.524446       1.334524
                          5       1   12fxz2             0.524446       0.770488
                          5       1   12fy3              0.524446       0.344573
                          5       1   12fy2z             0.524446       0.770488
                          5       1   12fyz2             0.524446       0.770488
                          5       1   12fz3              0.524446       0.344573

                          6       1    8px               0.915857       1.277099
                          6       1    8py               0.915857       1.277099
                          6       1    8pz               0.915857       1.277099

                          7       1   14gx4              1.217666       1.912659
                          7       1   14gx3y             1.217666       5.060419
                          7       1   14gx3z             1.217666       5.060419
                          7       1   14gx2y2            1.217666       6.532973
                          7       1   14gx2yz            1.217666      11.315442
                          7       1   14gx2z2            1.217666       6.532973
                          7       1   14gxy3             1.217666       5.060419
                          7       1   14gxy2z            1.217666      11.315442
                          7       1   14gxyz2            1.217666      11.315442
                          7       1   14gxz3             1.217666       5.060419
                          7       1   14gy4              1.217666       1.912659
                          7       1   14gy3z             1.217666       5.060419
                          7       1   14gy2z2            1.217666       6.532973
                          7       1   14gyz3             1.217666       5.060419
                          7       1   14gz4              1.217666       1.912659

                          8       1   11dx2              1.581488       3.670921
                          8       1   11dxy              1.581488       6.358221
                          8       1   11dxz              1.581488       6.358221
                          8       1   11dy2              1.581488       3.670921
                          8       1   11dyz              1.581488       6.358221
                          8       1   11dz2              1.581488       3.670921

                          9       1    3s                1.620693       1.023730

                         10       1   13fx3              2.677157      13.496481
                         10       1   13fx2y             2.677157      30.179050
                         10       1   13fx2z             2.677157      30.179050
                         10       1   13fxy2             2.677157      30.179050
                         10       1   13fxyz             2.677157      52.271648
                         10       1   13fxz2             2.677157      30.179050
                         10       1   13fy3              2.677157      13.496481
                         10       1   13fy2z             2.677157      30.179050
                         10       1   13fyz2             2.677157      30.179050
                         10       1   13fz3              2.677157      13.496481

                         11       1    4s                5.999661       2.732154

                         12       1    9px               9.284861      23.102519
                         12       1    9py               9.284861      23.102519
                         12       1    9pz               9.284861      23.102519

                         13       1    5s               22.224963       7.295262

                         14       1    6s               82.329769      19.479498

       Atomic covalent radius [Angstrom]:                                  0.770

       Atomic van der Waals radius [Angstrom]:                             1.700

     The atoms of this atomic kind are PAW atoms (GAPW):
       Hard Gaussian function radius:                                      1.512
       Rho0 radius:                                                        1.512
       Maximum GTO radius used for PAW projector construction:            24.566

     GAPW Soft Basis Set                                  aug-SZV-MOLOPT-ae_soft

       Number of orbital shell sets:                                           2
       Number of orbital shells:                                               6
       Number of primitive Cartesian functions:                                6
       Number of Cartesian basis functions:                                   15
       Number of spherical basis functions:                                   14
       Norm type:                                                              2

       Normalised Cartesian orbitals:

                        Set   Shell   Orbital            Exponent    Coefficient

                          1       1    2s                0.070000       0.000000
                                                         0.143687       0.040037
                                                         0.313471       0.177689
                                                         0.721783       0.139661
                                                         1.876046      -0.038599

                          1       2    3s                0.070000      -0.142268
                                                         0.143687       0.288819
                                                         0.313471       0.010360
                                                         0.721783       0.175994
                                                         1.876046       0.000000

                          1       3    3px               0.070000       0.000000
                                                         0.143687       0.012825
                                                         0.313471       0.142381
                                                         0.721783       0.396426
                                                         1.876046       0.544234
                          1       3    3py               0.070000       0.000000
                                                         0.143687       0.012825
                                                         0.313471       0.142381
                                                         0.721783       0.396426
                                                         1.876046       0.544234
                          1       3    3pz               0.070000       0.000000
                                                         0.143687       0.012825
                                                         0.313471       0.142381
                                                         0.721783       0.396426
                                                         1.876046       0.544234

                          1       4    4px               0.070000       0.076505
                                                         0.143687      -0.086104
                                                         0.313471       0.010230
                                                         0.721783       0.129894
                                                         1.876046       0.000000
                          1       4    4py               0.070000       0.076505
                                                         0.143687      -0.086104
                                                         0.313471       0.010230
                                                         0.721783       0.129894
                                                         1.876046       0.000000
                          1       4    4pz               0.070000       0.076505
                                                         0.143687      -0.086104
                                                         0.313471       0.010230
                                                         0.721783       0.129894
                                                         1.876046       0.000000

                          1       5    4dx2              0.070000       0.004316
                                                         0.143687       0.012639
                                                         0.313471       0.125057
                                                         0.721783       0.080411
                                                         1.876046       0.000000
                          1       5    4dxy              0.070000       0.007476
                                                         0.143687       0.021892
                                                         0.313471       0.216606
                                                         0.721783       0.139276
                                                         1.876046       0.000000
                          1       5    4dxz              0.070000       0.007476
                                                         0.143687       0.021892
                                                         0.313471       0.216606
                                                         0.721783       0.139276
                                                         1.876046       0.000000
                          1       5    4dy2              0.070000       0.004316
                                                         0.143687       0.012639
                                                         0.313471       0.125057
                                                         0.721783       0.080411
                                                         1.876046       0.000000
                          1       5    4dyz              0.070000       0.007476
                                                         0.143687       0.021892
                                                         0.313471       0.216606
                                                         0.721783       0.139276
                                                         1.876046       0.000000
                          1       5    4dz2              0.070000       0.004316
                                                         0.143687       0.012639
                                                         0.313471       0.125057
                                                         0.721783       0.080411
                                                         1.876046       0.000000

                          2       1    1s                2.093200       0.161650

     AE Potential information for                                            ALL

       Description:                                       All-electron potential
                                          Krack, Parrinello, PCCP 2, 2105 (2000)

       Gaussian exponent of the core charge distribution:               4.109048
       Electronic configuration (s p d ...):                           4   2   0

  2. Atomic kind: H                                     Number of atoms:       2

     Orbital Basis Set                                         aug-SZV-MOLOPT-ae

       Number of orbital shell sets:                                           1
       Number of orbital shells:                                               4
       Number of primitive Cartesian functions:                                7
       Number of Cartesian basis functions:                                    6
       Number of spherical basis functions:                                    6
       Norm type:                                                              2

       Normalised Cartesian orbitals:

                        Set   Shell   Orbital            Exponent    Coefficient

                          1       1    1s                0.065428       0.000000
                                                         0.100112       0.016532
                                                         0.243077       0.102760
                                                         0.625955       0.185857
                                                         1.822143       0.188385
                                                         6.513144       0.143430
                                                        35.523221       0.095030

                          1       2    2s                0.065428       0.083549
                                                         0.100112       0.009605
                                                         0.243077       0.002524
                                                         0.625955       0.013457
                                                         1.822143       0.000000
                                                         6.513144       0.000000
                                                        35.523221       0.000000

                          1       3    3s                0.065428       0.037407
                                                         0.100112      -0.169070
                                                         0.243077      -0.018899
                                                         0.625955       0.012806
                                                         1.822143       0.000000
                                                         6.513144       0.000000
                                                        35.523221       0.000000

                          1       4    2px               0.065428       0.059908
                                                         0.100112      -0.023770
                                                         0.243077       0.000032
                                                         0.625955       0.017779
                                                         1.822143       0.000000
                                                         6.513144       0.000000
                                                        35.523221       0.000000
                          1       4    2py               0.065428       0.059908
                                                         0.100112      -0.023770
                                                         0.243077       0.000032
                                                         0.625955       0.017779
                                                         1.822143       0.000000
                                                         6.513144       0.000000
                                                        35.523221       0.000000
                          1       4    2pz               0.065428       0.059908
                                                         0.100112      -0.023770
                                                         0.243077       0.000032
                                                         0.625955       0.017779
                                                         1.822143       0.000000
                                                         6.513144       0.000000
                                                        35.523221       0.000000

     RI Auxiliary Basis Set             RI_aug-SZV-MOLOPT-ae_N_RI_007_s_p_d_f_g_

       Number of orbital shell sets:                                           5
       Number of orbital shells:                                               5
       Number of primitive Cartesian functions:                                5
       Number of Cartesian basis functions:                                    7
       Number of spherical basis functions:                                    7
       Norm type:                                                              2

       Normalised Cartesian orbitals:

                        Set   Shell   Orbital            Exponent    Coefficient

                          1       1    1s                0.148777       0.170731

                          2       1    5px               0.367452       0.407794
                          2       1    5py               0.367452       0.407794
                          2       1    5pz               0.367452       0.407794

                          3       1    2s                0.510503       0.430437

                          4       1    3s                1.106366       0.768837

                          5       1    4s                5.955292       2.716986

       Atomic covalent radius [Angstrom]:                                  0.320

       Atomic van der Waals radius [Angstrom]:                             1.090

     The atoms of this atomic kind are PAW atoms (GAPW):
       Hard Gaussian function radius:                                      1.200
       Rho0 radius:                                                        1.200
       Maximum GTO radius used for PAW projector construction:            24.566

     GAPW Soft Basis Set                                  aug-SZV-MOLOPT-ae_soft

       Number of orbital shell sets:                                           1
       Number of orbital shells:                                               4
       Number of primitive Cartesian functions:                                6
       Number of Cartesian basis functions:                                    6
       Number of spherical basis functions:                                    6
       Norm type:                                                              2

       Normalised Cartesian orbitals:

                        Set   Shell   Orbital            Exponent    Coefficient

                          1       1    1s                0.065428       0.000000
                                                         0.100112       0.016532
                                                         0.243077       0.102760
                                                         0.625955       0.185857
                                                         1.822143       0.188385
                                                         6.513144       0.000000

                          1       2    2s                0.065428       0.083549
                                                         0.100112       0.009605
                                                         0.243077       0.002524
                                                         0.625955       0.013457
                                                         1.822143       0.000000
                                                         6.513144       0.000000

                          1       3    3s                0.065428       0.037407
                                                         0.100112      -0.169070
                                                         0.243077      -0.018899
                                                         0.625955       0.012806
                                                         1.822143       0.000000
                                                         6.513144       0.000000

                          1       4    2px               0.065428       0.059908
                                                         0.100112      -0.023770
                                                         0.243077       0.000032
                                                         0.625955       0.017779
                                                         1.822143       0.000000
                                                         6.513144       0.000000
                          1       4    2py               0.065428       0.059908
                                                         0.100112      -0.023770
                                                         0.243077       0.000032
                                                         0.625955       0.017779
                                                         1.822143       0.000000
                                                         6.513144       0.000000
                          1       4    2pz               0.065428       0.059908
                                                         0.100112      -0.023770
                                                         0.243077       0.000032
                                                         0.625955       0.017779
                                                         1.822143       0.000000
                                                         6.513144       0.000000

     AE Potential information for                                            ALL

       Description:                                       All-electron potential
                                          Krack, Parrinello, PCCP 2, 2105 (2000)

       Gaussian exponent of the core charge distribution:              12.500000
       Electronic configuration (s p d ...):                           1   0   0

  3. Atomic kind: F                                     Number of atoms:       2

     Orbital Basis Set                                         aug-SZV-MOLOPT-ae

       Number of orbital shell sets:                                           2
       Number of orbital shells:                                               6
       Number of primitive Cartesian functions:                               13
       Number of Cartesian basis functions:                                   15
       Number of spherical basis functions:                                   14
       Norm type:                                                              2

       Normalised Cartesian orbitals:

                        Set   Shell   Orbital            Exponent    Coefficient

                          1       1    1s                0.155133       0.000000
                                                         0.315820       0.072273
                                                         0.689002       0.320758
                                                         1.586463       0.252111
                                                         4.123510      -0.069677
                                                        13.267438      -0.232821
                                                        67.032281      -0.221274

                          1       2    2s                0.155133      -0.179489
                                                         0.315820      -0.016230
                                                         0.689002      -0.059266
                                                         1.586463       0.485286
                                                         4.123510       0.000000
                                                        13.267438       0.000000
                                                        67.032281       0.000000

                          1       3    2px               0.155133       0.000000
                                                         0.315820       0.034324
                                                         0.689002       0.381050
                                                         1.586463       1.060942
                                                         4.123510       1.456516
                                                        13.267438       1.359964
                                                        67.032281       1.027893
                          1       3    2py               0.155133       0.000000
                                                         0.315820       0.034324
                                                         0.689002       0.381050
                                                         1.586463       1.060942
                                                         4.123510       1.456516
                                                        13.267438       1.359964
                                                        67.032281       1.027893
                          1       3    2pz               0.155133       0.000000
                                                         0.315820       0.034324
                                                         0.689002       0.381050
                                                         1.586463       1.060942
                                                         4.123510       1.456516
                                                        13.267438       1.359964
                                                        67.032281       1.027893

                          1       4    3px               0.155133       0.147830
                                                         0.315820       0.027789
                                                         0.689002      -0.276015
                                                         1.586463      -0.305674
                                                         4.123510       0.000000
                                                        13.267438       0.000000
                                                        67.032281       0.000000
                          1       4    3py               0.155133       0.147830
                                                         0.315820       0.027789
                                                         0.689002      -0.276015
                                                         1.586463      -0.305674
                                                         4.123510       0.000000
                                                        13.267438       0.000000
                                                        67.032281       0.000000
                          1       4    3pz               0.155133       0.147830
                                                         0.315820       0.027789
                                                         0.689002      -0.276015
                                                         1.586463      -0.305674
                                                         4.123510       0.000000
                                                        13.267438       0.000000
                                                        67.032281       0.000000

                          1       5    3dx2              0.155133       0.001192
                                                         0.315820       0.007166
                                                         0.689002       0.163958
                                                         1.586463       3.063217
                                                         4.123510       0.000000
                                                        13.267438       0.000000
                                                        67.032281       0.000000
                          1       5    3dxy              0.155133       0.002065
                                                         0.315820       0.012412
                                                         0.689002       0.283983
                                                         1.586463       5.305647
                                                         4.123510       0.000000
                                                        13.267438       0.000000
                                                        67.032281       0.000000
                          1       5    3dxz              0.155133       0.002065
                                                         0.315820       0.012412
                                                         0.689002       0.283983
                                                         1.586463       5.305647
                                                         4.123510       0.000000
                                                        13.267438       0.000000
                                                        67.032281       0.000000
                          1       5    3dy2              0.155133       0.001192
                                                         0.315820       0.007166
                                                         0.689002       0.163958
                                                         1.586463       3.063217
                                                         4.123510       0.000000
                                                        13.267438       0.000000
                                                        67.032281       0.000000
                          1       5    3dyz              0.155133       0.002065
                                                         0.315820       0.012412
                                                         0.689002       0.283983
                                                         1.586463       5.305647
                                                         4.123510       0.000000
                                                        13.267438       0.000000
                                                        67.032281       0.000000
                          1       5    3dz2              0.155133       0.001192
                                                         0.315820       0.007166
                                                         0.689002       0.163958
                                                         1.586463       3.063217
                                                         4.123510       0.000000
                                                        13.267438       0.000000
                                                        67.032281       0.000000

                          2       1    1s             1728.626574       1.750862
                                                       316.941790       2.642610
                                                        88.668891       3.470861
                                                        30.460157       3.424294
                                                        11.828570       1.893283
                                                         4.871659       0.304597

     RI Auxiliary Basis Set             RI_aug-SZV-MOLOPT-ae_N_RI_031_s_p_d_f_g_

       Number of orbital shell sets:                                          11
       Number of orbital shells:                                              11
       Number of primitive Cartesian functions:                               11
       Number of Cartesian basis functions:                                   36
       Number of spherical basis functions:                                   31
       Norm type:                                                              2

       Normalised Cartesian orbitals:

                        Set   Shell   Orbital            Exponent    Coefficient

                          1       1    1s                0.317894       0.301732

                          2       1    9dx2              0.524090       0.531337
                          2       1    9dxy              0.524090       0.920302
                          2       1    9dxz              0.524090       0.920302
                          2       1    9dy2              0.524090       0.531337
                          2       1    9dyz              0.524090       0.920302
                          2       1    9dz2              0.524090       0.531337

                          3       1    6px               0.746136       0.988468
                          3       1    6py               0.746136       0.988468
                          3       1    6pz               0.746136       0.988468

                          4       1    2s                1.392054       0.913382

                          5       1    7px               1.615444       2.596002
                          5       1    7py               1.615444       2.596002
                          5       1    7pz               1.615444       2.596002

                          6       1   10dx2              2.575615       8.618887
                          6       1   10dxy              2.575615      14.928350
                          6       1   10dxz              2.575615      14.928350
                          6       1   10dy2              2.575615       8.618887
                          6       1   10dyz              2.575615      14.928350
                          6       1   10dz2              2.575615       8.618887

                          7       1   11fx3              2.583079      12.452720
                          7       1   11fx2y             2.583079      27.845128
                          7       1   11fx2z             2.583079      27.845128
                          7       1   11fxy2             2.583079      27.845128
                          7       1   11fxyz             2.583079      48.229177
                          7       1   11fxz2             2.583079      27.845128
                          7       1   11fy3              2.583079      12.452720
                          7       1   11fy2z             2.583079      27.845128
                          7       1   11fyz2             2.583079      27.845128
                          7       1   11fz3              2.583079      12.452720

                          8       1    3s                3.617131       1.869318

                          9       1    8px               8.515448      20.734782
                          9       1    8py               8.515448      20.734782
                          9       1    8pz               8.515448      20.734782

                         10       1    4s               31.214795       9.411968

                         11       1    5s              195.679475      37.287996

       Atomic covalent radius [Angstrom]:                                  0.720

       Atomic van der Waals radius [Angstrom]:                             1.470

     The atoms of this atomic kind are PAW atoms (GAPW):
       Hard Gaussian function radius:                                      1.512
       Rho0 radius:                                                        1.512
       Maximum GTO radius used for PAW projector construction:            24.566

     GAPW Soft Basis Set                                  aug-SZV-MOLOPT-ae_soft

       Number of orbital shell sets:                                           2
       Number of orbital shells:                                               6
       Number of primitive Cartesian functions:                                5
       Number of Cartesian basis functions:                                   15
       Number of spherical basis functions:                                   14
       Norm type:                                                              2

       Normalised Cartesian orbitals:

                        Set   Shell   Orbital            Exponent    Coefficient

                          1       1    1s                0.155133       0.000000
                                                         0.315820       0.072273
                                                         0.689002       0.320758
                                                         1.586463       0.252111
                                                         4.123510       0.000000

                          1       2    2s                0.155133      -0.179489
                                                         0.315820      -0.016230
                                                         0.689002      -0.059266
                                                         1.586463       0.485286
                                                         4.123510       0.000000

                          1       3    2px               0.155133       0.000000
                                                         0.315820       0.034324
                                                         0.689002       0.381050
                                                         1.586463       1.060942
                                                         4.123510       1.456516
                          1       3    2py               0.155133       0.000000
                                                         0.315820       0.034324
                                                         0.689002       0.381050
                                                         1.586463       1.060942
                                                         4.123510       1.456516
                          1       3    2pz               0.155133       0.000000
                                                         0.315820       0.034324
                                                         0.689002       0.381050
                                                         1.586463       1.060942
                                                         4.123510       1.456516

                          1       4    3px               0.155133       0.147830
                                                         0.315820       0.027789
                                                         0.689002      -0.276015
                                                         1.586463      -0.305674
                                                         4.123510       0.000000
                          1       4    3py               0.155133       0.147830
                                                         0.315820       0.027789
                                                         0.689002      -0.276015
                                                         1.586463      -0.305674
                                                         4.123510       0.000000
                          1       4    3pz               0.155133       0.147830
                                                         0.315820       0.027789
                                                         0.689002      -0.276015
                                                         1.586463      -0.305674
                                                         4.123510       0.000000

                          1       5    3dx2              0.155133       0.001192
                                                         0.315820       0.007166
                                                         0.689002       0.163958
                                                         1.586463       3.063217
                                                         4.123510       0.000000
                          1       5    3dxy              0.155133       0.002065
                                                         0.315820       0.012412
                                                         0.689002       0.283983
                                                         1.586463       5.305647
                                                         4.123510       0.000000
                          1       5    3dxz              0.155133       0.002065
                                                         0.315820       0.012412
                                                         0.689002       0.283983
                                                         1.586463       5.305647
                                                         4.123510       0.000000
                          1       5    3dy2              0.155133       0.001192
                                                         0.315820       0.007166
                                                         0.689002       0.163958
                                                         1.586463       3.063217
                                                         4.123510       0.000000
                          1       5    3dyz              0.155133       0.002065
                                                         0.315820       0.012412
                                                         0.689002       0.283983
                                                         1.586463       5.305647
                                                         4.123510       0.000000
                          1       5    3dz2              0.155133       0.001192
                                                         0.315820       0.007166
                                                         0.689002       0.163958
                                                         1.586463       3.063217
                                                         4.123510       0.000000

                          2       1    1s         

     AE Potential information for                                            ALL

       Description:                                       All-electron potential
                                          Krack, Parrinello, PCCP 2, 2105 (2000)

       Gaussian exponent of the core charge distribution:              10.470541
       Electronic configuration (s p d ...):                           4   5   0


 MOLECULE KIND INFORMATION


 All atoms are their own molecule, skipping detailed information


 TOTAL NUMBERS AND MAXIMUM NUMBERS

  Total number of            - Atomic kinds:                                   3
                             - Atoms:                                          5
                             - Shell sets:                                     8
                             - Shells:                                        26
                             - Primitive Cartesian functions:                 53
                             - Cartesian basis functions:                     57
                             - Spherical basis functions:                     54

  Maximum angular momentum of the orbital basis functions:                     2


 MODULE QUICKSTEP: ATOMIC COORDINATES IN ANGSTROM

   Atom Kind Element         X             Y             Z       Z(eff)     Mass
      1    1 C     6     15.000000     15.075307     15.000000   6.0000  12.0107
      2    2 H     1     15.000000     15.704580     14.110073   1.0000   1.0079
      3    2 H     1     15.000000     15.704580     15.889927   1.0000   1.0079
      4    3 F     9     13.897072     14.295420     15.000000   9.0000  18.9984
      5    3 F     9     16.102928     14.295420     15.000000   9.0000  18.9984



 SCF PARAMETERS         Density guess:                                   RESTART
                        --------------------------------------------------------
                        max_scf:                                             500
                        max_scf_history:                                       0
                        max_diis:                                              4
                        --------------------------------------------------------
                        eps_scf:                                        1.00E-06
                        eps_scf_history:                                0.00E+00
                        eps_diis:                                       1.00E-01
                        eps_eigval:                                     1.00E-05
                        --------------------------------------------------------
                        level_shift [a.u.]:                             0.000000
                        --------------------------------------------------------
                        Outer loop SCF in use 
                        No variables optimised in outer loop
                        eps_scf                                         1.00E-06
                        max_scf                                               20
                        No outer loop optimization
                        step_size                                       5.00E-01

 PW_GRID| Information for grid number                                          1
 PW_GRID| Grid distributed over                                   192 processors
 PW_GRID| Real space group dimensions                                   192    1
 PW_GRID| the grid is blocked:                                                NO
 PW_GRID| Cutoff [a.u.]                                                    250.0
 PW_GRID| spherical cutoff:                                                   NO
 PW_GRID|   Bounds   1           -202     202                Points:         405
 PW_GRID|   Bounds   2           -202     202                Points:         405
 PW_GRID|   Bounds   3           -202     202                Points:         405
 PW_GRID| Volume element (a.u.^3)  0.2743E-02     Volume (a.u.^3)    182205.0337
 PW_GRID| Grid span                                                    FULLSPACE
 PW_GRID|   Distribution                         Average         Max         Min
 PW_GRID|   G-Vectors                           345990.2      346275      345870
 PW_GRID|   G-Rays                                 854.3         855         854
 PW_GRID|   Real Space Points                   345990.2      492075      328050

 PW_GRID| Information for grid number                                          2
 PW_GRID| Number of the reference grid                                         1
 PW_GRID| Grid distributed over                                   192 processors
 PW_GRID| Real space group dimensions                                   192    1
 PW_GRID| the grid is blocked:                                                NO
 PW_GRID| Cutoff [a.u.]                                                     83.3
 PW_GRID| spherical cutoff:                                                   NO
 PW_GRID|   Bounds   1           -120     119                Points:         240
 PW_GRID|   Bounds   2           -120     119                Points:         240
 PW_GRID|   Bounds   3           -120     119                Points:         240
 PW_GRID| Volume element (a.u.^3)  0.1318E-01     Volume (a.u.^3)    182205.0337
 PW_GRID| Grid span                                                    FULLSPACE
 PW_GRID|   Distribution                         Average         Max         Min
 PW_GRID|   G-Vectors                            72000.0       72240       71760
 PW_GRID|   G-Rays                                 300.0         301         299
 PW_GRID|   Real Space Points                    72000.0      115200       57600

 PW_GRID| Information for grid number                                          3
 PW_GRID| Number of the reference grid                                         1
 PW_GRID| Grid distributed over                                   192 processors
 PW_GRID| Real space group dimensions                                    12   16
 PW_GRID| the grid is blocked:                                                NO
 PW_GRID| Cutoff [a.u.]                                                     27.8
 PW_GRID| spherical cutoff:                                                   NO
 PW_GRID|   Bounds   1            -67      67                Points:         135
 PW_GRID|   Bounds   2            -67      67                Points:         135
 PW_GRID|   Bounds   3            -67      67                Points:         135
 PW_GRID| Volume element (a.u.^3)  0.7406E-01     Volume (a.u.^3)    182205.0337
 PW_GRID| Grid span                                                    FULLSPACE
 PW_GRID|   Distribution                         Average         Max         Min
 PW_GRID|   G-Vectors                            12814.5       12960       12690
 PW_GRID|   G-Rays                                  94.9          96          94
 PW_GRID|   Real Space Points                    12814.5       14580       11880

 PW_GRID| Information for grid number                                          4
 PW_GRID| Number of the reference grid                                         1
 PW_GRID| Grid distributed over                                   192 processors
 PW_GRID| Real space group dimensions                                    12   16
 PW_GRID| the grid is blocked:                                                NO
 PW_GRID| Cutoff [a.u.]                                                      9.3
 PW_GRID| spherical cutoff:                                                   NO
 PW_GRID|   Bounds   1            -40      39                Points:          80
 PW_GRID|   Bounds   2            -40      39                Points:          80
 PW_GRID|   Bounds   3            -40      39                Points:          80
 PW_GRID| Volume element (a.u.^3)  0.3559         Volume (a.u.^3)    182205.0337
 PW_GRID| Grid span                                                    FULLSPACE
 PW_GRID|   Distribution                         Average         Max         Min
 PW_GRID|   G-Vectors                             2666.7        2800        2560
 PW_GRID|   G-Rays                                  33.3          35          32
 PW_GRID|   Real Space Points                     2666.7        2800        2400

 POISSON| Solver                                                         WAVELET
 POISSON| Wavelet| Scaling function                                           40
 POISSON| Periodicity                                                       NONE

 RS_GRID| Information for grid number                                          1
 RS_GRID|   Bounds   1           -202     202                Points:         405
 RS_GRID|   Bounds   2           -202     202                Points:         405
 RS_GRID|   Bounds   3           -202     202                Points:         405
 RS_GRID| Real space distribution over                                  4 groups
 RS_GRID| Real space distribution along direction                              1
 RS_GRID| Border size                                                         35
 RS_GRID| Real space distribution over                                  6 groups
 RS_GRID| Real space distribution along direction                              2
 RS_GRID| Border size                                                         35
 RS_GRID| Real space distribution over                                  8 groups
 RS_GRID| Real space distribution along direction                              3
 RS_GRID| Border size                                                         35
 RS_GRID|   Distribution                         Average         Max         Min
 RS_GRID|   Planes                                 171.2         172         171
 RS_GRID|   Distribution                         Average         Max         Min
 RS_GRID|   Planes                                 137.5         138         137
 RS_GRID|   Distribution                         Average         Max         Min
 RS_GRID|   Planes                                 120.6         121         120

 RS_GRID| Information for grid number                                          2
 RS_GRID|   Bounds   1           -120     119                Points:         240
 RS_GRID|   Bounds   2           -120     119                Points:         240
 RS_GRID|   Bounds   3           -120     119                Points:         240
 RS_GRID| Real space distribution over                                  4 groups
 RS_GRID| Real space distribution along direction                              1
 RS_GRID| Border size                                                         36
 RS_GRID| Real space distribution over                                  6 groups
 RS_GRID| Real space distribution along direction                              2
 RS_GRID| Border size                                                         36
 RS_GRID| Real space distribution over                                  8 groups
 RS_GRID| Real space distribution along direction                              3
 RS_GRID| Border size                                                         36
 RS_GRID|   Distribution                         Average         Max         Min
 RS_GRID|   Planes                                 132.0         132         132
 RS_GRID|   Distribution                         Average         Max         Min
 RS_GRID|   Planes                                 112.0         112         112
 RS_GRID|   Distribution                         Average         Max         Min
 RS_GRID|   Planes                                 102.0         102         102

 RS_GRID| Information for grid number                                          3
 RS_GRID|   Bounds   1            -67      67                Points:         135
 RS_GRID|   Bounds   2            -67      67                Points:         135
 RS_GRID|   Bounds   3            -67      67                Points:         135
 RS_GRID| Real space fully replicated
 RS_GRID| Group size                                                           1

 RS_GRID| Information for grid number                                          4
 RS_GRID|   Bounds   1            -40      39                Points:          80
 RS_GRID|   Bounds   2            -40      39                Points:          80
 RS_GRID|   Bounds   3            -40      39                Points:          80
 RS_GRID| Real space fully replicated
 RS_GRID| Group size                                                           1

  HFX_INFO| Replica ID:                                                        1
  HFX_INFO| FRACTION:                                               0.2500000000
  HFX_INFO| Interaction Potential:                                       COULOMB
  HFX_INFO| EPS_SCHWARZ:                                                 1.0E-10
[...]
 xc_pw_derive                      1857 11.0    0.019    0.023   48.791   49.126
 density_rs2pw                      385  8.7    0.021    0.025   44.780   46.026
 mp_alltoall_d45                    384 10.8   33.373   37.800   33.373   37.800
 x_to_yz                           2625 13.8    3.637    5.037   33.360   34.214
 yz_to_x                           2478 13.8    2.426    2.656   32.367   33.903
 transfer_rs2pw                    1925  9.8    0.055    0.084   31.209   31.834
 tddfpt_apply_xc_analytic           160  9.0    0.121    0.141   30.502   31.013
 integrate_four_center              543  9.6   11.210   23.896   30.588   30.747
 qs_vxc_create                      223  8.0    0.003    0.003   30.219   30.221
 xc_pw_divergence                   235 10.7    0.008    0.010   25.700   26.037
 mp_sync                           2995 11.5   14.701   25.831   14.701   25.831
 integrate_v_rspace                 235  9.0    0.005    0.006   25.436   25.716
 transfer_pw2rs                    1324 10.7    0.018    0.024   25.210   25.613
 prepare_gapw_den                   384  8.4    0.007    0.008   25.234   25.413
 potential_pw2rs                    235 10.0    0.052    0.067   23.723   24.089
 grid_collocate_task_list           385  8.7   22.289   23.639   22.289   23.639
 mp_waitany                      109726 12.2   20.175   22.012   20.175   22.012
 xc_rho_set_and_dset_create         224 10.0    0.299    0.348   18.429   21.638
 put_rho0_on_grid                   384  9.4    0.963    1.418   20.265   20.443
 xc_calc_2nd_deriv_analytical       800 10.0    0.861    0.925   18.242   18.324
 tddfpt_apply_hfx                     8  8.0    0.003    0.004   17.929   17.929
 transfer_rs2pw_250                 770 11.0    6.638    7.199   16.709   17.359
 transfer_pw2rs_250                 619 11.3    5.473    5.873   16.049   16.568
 mp_alltoall_d11v                 16332 11.9   11.573   16.427   11.573   16.427
 hfx_ks_matrix                      223  8.0    0.008    0.009   15.600   15.728
 xc_vxc_pw_create                    75  9.0    0.236    0.323   15.596   15.596
 tddft_hfx_matrix                   320  9.0    0.008    0.009   15.007   15.091
 integrate_vhg0_rspace              383  8.8    0.242    0.304   14.735   14.944
 xc_exc_calc                        148  9.0    0.360    0.512   14.621   14.622
 mp_sum_d                          7839  9.9    8.777    9.992    8.777    9.992
 transfer_rs2pw_30                  385 10.7    3.375    3.543    7.927    8.032
 sum_up_and_integrate                75  8.0    0.001    0.001    7.874    7.901
 qs_scf_new_mos                     223  5.0    0.001    0.001    7.369    7.383
 qs_scf_loop_do_ot                  223  6.0    0.001    0.001    7.368    7.382
 dbcsr_multiply_generic            4016  9.9    0.163    0.176    7.183    7.309
 ot_scf_mini                        223  7.0    0.003    0.003    6.922    6.936
 init_scf_loop                        1  4.0    0.000    0.000    6.708    6.708
 mp_waitall_1                    884538 13.3    5.017    6.422    5.017    6.422
 cp_dbcsr_sm_fm_multiply           1009  8.6    0.021    0.024    6.273    6.358
 mp_sendrecv_dv                  147070 11.7    5.985    6.146    5.985    6.146
 cp2k_distribution_to_z_slices      383  9.8    2.232    2.618    5.463    5.929
 gaVxcgb_GC                         470  9.7    0.078    5.436    0.078    5.436
 pw_scatter_p                      3095 12.8    5.034    5.250    5.034    5.250
 dbcsr_complete_redistribute       3635 10.7    0.139    0.188    4.871    4.965
 mp_isend_dm3                     13294 12.2    1.035    4.894    1.035    4.894
 transfer_pw2rs_30                  235 12.0    2.135    2.333    4.724    4.879
 mp_sum_dm                         5799  9.1    4.332    4.679    4.332    4.679
 calculate_xc_2nd_deriv_atom        160  9.0    0.031    0.652    0.104    4.676
 calculate_rho_atom                1152  9.4    1.721    4.636    1.721    4.636
 transfer_rs2pw_90                  385 10.7    1.072    1.254    4.212    4.625
 rs_grid_zero                      1622 11.4    4.012    4.213    4.012    4.213
 pw_gather_p                       3248 12.5    3.799    4.208    3.799    4.208
 pw_derive                         3006 11.6    3.906    4.177    3.906    4.177
 multiply_cannon                   4016 10.9    0.407    0.423    3.691    3.954
 fft_wrap_pw1pw2_90                 620 11.2    0.112    0.228    3.367    3.842
 xc_functional_eval                1756 10.9    0.002    0.007    0.876    3.732
 pbe_lda_eval                      1756 11.9    0.875    3.729    0.875    3.729
 copy_dbcsr_to_fm                  1272  9.7    0.017    0.018    3.502    3.535
 qs_ot_get_p                        224  8.0    0.001    0.002    3.488    3.497
 mp_sum_dv                        24964 10.6    3.326    3.405    3.326    3.405
 transfer_pw2rs_90                  235 12.0    0.653    0.741    2.902    3.239
 pw_copy                           4690 10.8    2.953    3.126    2.953    3.126
 copy_fm_to_dbcsr                  2361  9.8    0.010    0.011    3.019    3.111
 multiply_cannon_loop              4016 11.9    0.621    0.695    2.779    3.034
 pw_poisson_set                     384  9.8    0.010    0.013    2.695    2.747
 qs_ot_p2m_diag                     223  9.0    0.005    0.009    2.681    2.697
 calculate_vxc_atom                 223  8.0    0.102    0.518    2.500    2.501
 mp_alltoall_i11v                 12400 11.8    2.457    2.460    2.457    2.460
 pw_copy_to_array                  3248 12.5    1.663    2.443    1.663    2.443
 mp_isendrecv_dv                 297196 12.0    1.382    2.440    1.382    2.440
 calc_screening_functions             1 10.0    1.814    1.843    2.363    2.402
 transfer_rs2pw_10                  385 10.7    0.873    0.934    2.306    2.372
 calculate_rho_atom_coeff           385  7.7    0.065    0.119    2.229    2.230
 mp_isend_dv                     278041 13.3    1.324    2.219    1.324    2.219
 ot_mini                            223  8.0    0.001    0.001    2.203    2.216
 integrate_four_center_main         543 10.6    0.080    0.415    0.182    2.097
 make_m2s                          8032 10.9    0.133    0.150    2.001    2.075
 qs_ot_get_derivative                75  9.0    0.001    0.001    2.012    2.014
 cp_dbcsr_syevd                     223 10.0    0.013    0.013    1.858    1.872
 pw_integral_ab_c1d_c1d_gs          383  9.8    1.400    1.414    1.778    1.871
 integrate_four_center_bin        47284 11.6    0.102    1.861    0.102    1.861
 rs_gather_matrices                 235 10.0    0.003    0.008    1.587    1.775
 transfer_pw2rs_10                  235 12.0    0.554    0.662    1.517    1.634
 make_images                       8032 11.9    0.380    0.387    1.582    1.630
 cp_dbcsr_sm_fm_multiply_core      1009  9.6    0.002    0.003    1.534    1.601
 dbcsr_desymmetrize_deep           1273 10.7    0.033    0.036    1.550    1.578
 qs_ot_get_derivative_diag           74 10.0    0.002    0.002    1.557    1.561
 grid_integrate_task_list           235 10.0    0.120    1.516    0.120    1.516
 pw_axpy                           3258 10.1    1.281    1.404    1.281    1.404
 tddfpt_orthonormalize_psi1_psi       9  6.9    0.019    0.021    1.359    1.359
 mp_irecv_dm3                     13294 12.2    0.707    1.341    0.707    1.341
 Vh_1c_gg_integrals                 383  8.8    0.039    0.725    1.210    1.320
 cp_fm_syevd                        273 10.4    0.001    0.002    1.279    1.283
 mp_max_i                           851  5.8    1.044    1.242    1.044    1.242
 fft_wrap_pw1pw2_30                 620 11.2    0.020    0.021    1.162    1.234
 pw_copy_from_array                3095 12.8    1.058    1.224    1.058    1.224
 pw_zero                           3276 10.5    1.097    1.205    1.097    1.205
 mp_alltoall_z11v                  1240 14.2    1.100    1.176    1.100    1.176
 offload_free_buffer                391  9.7    0.951    1.130    0.951    1.130
 tddfpt_apply_energy_diff             8  8.0    0.001    0.001    1.073    1.073
 multiply_cannon_metrocomm3       96384 12.9    0.290    0.303    0.799    1.059
 powell_optimize                 389929 11.0    0.973    1.003    0.973    1.003
 cp_fm_redistribute_end             273 11.4    0.571    0.967    0.588    0.985
 cp_dbcsr_plus_fm_fm_t              161  9.0    0.002    0.003    0.947    0.959
 mp_sum_l                         17889 10.7    0.849    0.925    0.849    0.925
 update_ks_atom                     383  8.4    0.048    0.089    0.453    0.896
 hybrid_alltoall_any               9305 13.6    0.081    0.089    0.843    0.875
 tddfpt_compute_residual_vects        7  7.0    0.001    0.001    0.875    0.875
 mp_bcast_dm                       4056  9.6    0.416    0.860    0.416    0.860
 qs_ot_get_orbitals                 223  8.0    0.001    0.001    0.845    0.850
 integrate_four_center_getP         543 10.6    0.154    0.176    0.765    0.800
 cp_fm_syevd_base                   273 11.4    0.392    0.790    0.392    0.790
 calc_pair_dist_radii                 1 10.0    0.330    0.351    0.754    0.779
 integrate_four_center_dist_KS      543 10.6    0.153    0.180    0.762    0.770
 make_images_sizes                 8032 12.9    0.009    0.010    0.731    0.761
 mp_alltoall_i44                   8032 13.9    0.722    0.752    0.722    0.752
 tddfpt_print_nto_analysis            1  6.0    0.002    0.003    0.676    0.685
 mp_alltoall_i22                   4982 11.8    0.545    0.671    0.545    0.671
 pw_poisson_rebuild                 383  9.8    0.000    0.001    0.647    0.665
 ps_wavelet_create                    1 10.0    0.000    0.000    0.646    0.665
 RS_z_slice_distribution              1 11.0    0.520    0.592    0.646    0.665
 scale_and_distribute               766 10.8    0.528    0.653    0.528    0.653
 multiply_cannon_metrocomm4       92368 12.9    0.278    0.319    0.542    0.642
 yz_to_xz                           470 14.0    0.045    0.052    0.575    0.639
 xz_to_yz                           770 12.7    0.047    0.061    0.621    0.632
 parallel_gemm_fm                  1344  8.4    0.002    0.002    0.596    0.607
 fft_wrap_pw1pw2_10                 620 11.2    0.007    0.007    0.598    0.607
 parallel_gemm_fm_gemm             1344  9.4    0.002    0.002    0.595    0.605
 cp_fm_gemm                        1344 10.4    0.593    0.604    0.593    0.604
 multiply_cannon_metrocomm2       84336 12.9    0.253    0.278    0.467    0.533
 mp_rank_compare                   6343 13.7    0.430    0.456    0.430    0.456
 calculate_dm_sparse                224  7.0    0.001    0.001    0.448    0.453
 prepare_dr1dr                      800 11.0    0.258    0.409    0.258    0.409
 arnoldi_extremal                   224  9.0    0.004    0.005    0.363    0.370
 arnoldi_normal_ev                  225 10.0    0.004    0.004    0.361    0.369
 cp_fm_trace_a1b1t1_aa            13090  8.0    0.062    0.068    0.317    0.320
 mp_allgather_i34                  4016 11.9    0.298    0.319    0.298    0.319
 dbcsr_finalize                   10619 11.4    0.051    0.068    0.240    0.317
 cp_fm_redistribute_start           273 11.4    0.241    0.248    0.297    0.311
 calculate_rho0_atom               1152  9.4    0.300    0.308    0.300    0.308
 dbcsr_create_new                 72375 12.3    0.219    0.230    0.293    0.305
 dbcsr_make_images_dense           5408 11.9    0.077    0.083    0.208    0.302
 multiply_cannon_metrocomm1       96384 12.9    0.106    0.111    0.209    0.289
 init_scf_run                         1  3.0    0.000    0.000    0.286    0.286
 scf_env_initial_rho_setup            1  4.0    0.000    0.000    0.286    0.286
 xc_2nd_deriv_of_r                  640 10.0    0.001    0.048    0.004    0.280
 make_images_data                  8032 12.9    0.090    0.114    0.193    0.278
 mp_cart_sub                       2548 11.7    0.274    0.276    0.274    0.276
 build_subspace                     225 11.0    0.011    0.012    0.268    0.271
 cp_fm_geeig                         20  7.0    0.001    0.001    0.266    0.267
 tddfpt_construct_ground_state_       1  6.0    0.000    0.000    0.251    0.251
 rs_scatter_matrices                385  8.7    0.003    0.007    0.235    0.243
 vxc_of_r_new                       892  9.0    0.000    0.019    0.003    0.240
 qs_energies_init_hamiltonians        1  3.0    0.000    0.000    0.240    0.240
 mp_irecv_dv                     276280 13.3    0.194    0.237    0.194    0.237
 build_core_hamiltonian_matrix        1  4.0    0.000    0.000    0.230    0.230
 overlap_condnum                      1  5.0    0.000    0.000    0.227    0.228
 dbcsr_make_dense_low             12974 12.8    0.065    0.068    0.099    0.224
 dbcsr_matrix_vector_mult          2364 12.0    0.021    0.022    0.118    0.220
 mp_cart_create                    2426 10.6    0.190    0.201    0.193    0.204
 multiply_cannon_multrec          96384 12.9    0.124    0.180    0.141    0.197
 create_qs_kind_set                   1  2.0    0.000    0.000    0.161    0.182
 read_qs_kind                         3  3.0    0.071    0.097    0.161    0.182
 mp_isend_iv                     192371 13.9    0.152    0.180    0.152    0.180
 dbcsr_merge_all                   9231 12.3    0.108    0.139    0.134    0.179
 ot_new_cg_direction                 75  9.0    0.001    0.001    0.175    0.175
 cube_transpose_2                   770 12.7    0.015    0.018    0.155    0.169
 qs_init_subsys                       1  2.0    0.004    0.004    0.164    0.164
 dbcsr_special_finalize           16064 12.9    0.040    0.042    0.130    0.157
 dbcsr_iterator_start             70456 12.4    0.074    0.128    0.089    0.157
 qs_env_setup                         1  3.0    0.000    0.000    0.153    0.154
 qs_env_rebuild_pw_env                2  3.5    0.000    0.000    0.152    0.153
 pw_env_rebuild                       1  5.0    0.001    0.001    0.152    0.152
 apply_preconditioner_dbcsr          76 10.0    0.000    0.000    0.144    0.150
 apply_single                        76 11.0    0.000    0.000    0.144    0.150
 arnoldi_conjugate_gradient           5  6.0    0.004    0.004    0.147    0.147
 dbcsr_new_transposed              1736 10.8    0.010    0.011    0.136    0.138
 pw_grid_setup                        4  6.0    0.000    0.000    0.137    0.137
 pw_grid_setup_internal               4  7.0    0.004    0.005    0.137    0.137
 create_kernel_env                    1  6.0    0.000    0.000    0.113    0.135
 xc_prep_2nd_deriv                    1  7.0    0.000    0.000    0.113    0.135
 dbcsr_destroy                    69856 11.4    0.090    0.095    0.120    0.128
 pw_scale                           620  9.5    0.103    0.123    0.103    0.123
 tddfpt_compute_ritz_vects            8  7.0    0.006    0.006    0.123    0.123
 make_dense_data                  12974 13.8    0.006    0.049    0.007    0.119
 dbcsr_data_new                  210639 12.9    0.088    0.117    0.088    0.117
 parser_read_line                 12765  4.0    0.005    0.006    0.090    0.115
 mp_sum_b                          5409 10.9    0.110    0.114    0.110    0.114
 dbcsr_sym_matrix_vector_mult       650  7.6    0.010    0.011    0.087    0.111
 parser_read_line_low                22  5.0    0.015    0.038    0.086    0.111
 dbcsr_redistribute                  74 12.0    0.003    0.003    0.107    0.109
 dbcsr_data_release              353943 13.1    0.091    0.106    0.091    0.106
 rs_grid_create                     389  9.8    0.002    0.003    0.023    0.105
 Gram_Schmidt_ortho                2209 11.9    0.002    0.004    0.080    0.104
 offload_create_buffer              391 10.8    0.021    0.103    0.021    0.103
 dbcsr_col_vec_to_rep_row          3014 12.1    0.021    0.023    0.054    0.102
 dbcsr_iterator_stop              70456 12.4    0.054    0.084    0.066    0.100
 mp_cart_rank                    294560 10.3    0.079    0.097    0.079    0.097
 broadcast_input_information         22  6.0    0.026    0.031    0.071    0.096
 mp_irecv_iv                     191378 13.9    0.084    0.096    0.084    0.096
 tddfpt_orthogonalize_psi1_psi0       9  6.9    0.000    0.000    0.090    0.096
 cube_transpose_1                   470 14.0    0.008    0.010    0.085    0.094
 dbcsr_add_d                       1431  8.5    0.002    0.002    0.012    0.090
 dbcsr_work_create                26642 12.4    0.053    0.059    0.076    0.090
 dbcsr_add_anytype                 1431  9.5    0.002    0.012    0.010    0.088
 dbcsr_make_dense                  2158 11.1    0.009    0.010    0.048    0.087
 copy_fm_to_dbcsr_bc               2361 10.8    0.025    0.028    0.072    0.083
 integrate_four_center_load         543 10.6    0.001    0.002    0.059    0.081
 hfx_load_balance                     1 11.0    0.000    0.000    0.058    0.079
 pw_grid_sort                         4  8.0    0.048    0.049    0.075    0.079
 setup_buffer_matrices             8032 11.9    0.024    0.026    0.076    0.078
 dbcsr_work_destroy_all           26642 13.4    0.047    0.053    0.064    0.074
 dbcsr_dot                          747  8.7    0.004    0.005    0.064    0.070
 hfx_load_balance_range               1 12.0    0.000    0.000    0.046    0.067
 arnoldi_init                       225 11.0    0.003    0.003    0.061    0.067
 dbcsr_copy                        8265  9.8    0.027    0.028    0.060    0.062
 dbcsr_make_undense                2158 11.1    0.014    0.027    0.027    0.062
 mp_bcast_dv                       3287 13.0    0.030    0.061    0.030    0.061
 mp_sum_iv                         1380 10.0    0.048    0.060    0.048    0.060
 dbcsr_mm_multrec_init             4016 11.9    0.008    0.009    0.055    0.059
 quick_finalize                   11837 13.9    0.027    0.035    0.045    0.059
 write_mo_set_to_restart            223  5.0    0.003    0.013    0.054    0.057
 scf_post_calculation_gpw             1  3.0    0.000    0.000    0.054    0.054
 write_available_results              1  4.0    0.000    0.000    0.054    0.054
 write_mo_free_results                1  5.0    0.003    0.005    0.054    0.054
 dbcsr_mm_csr_init                 4016 12.9    0.038    0.041    0.047    0.051
 prepare_preconditioner               1  5.0    0.000    0.000    0.050    0.050
 make_preconditioner                  1  6.0    0.000    0.000    0.050    0.050
 dbcsr_make_untransposed_blocks    5413 10.9    0.030    0.031    0.049    0.050
 dbcsr_merge_single_wm             5574 13.7    0.028    0.032    0.032    0.046
 dbcsr_make_index_exist           72375 13.3    0.040    0.044    0.040    0.044
 mp_bcast_b                        2437 11.9    0.026    0.044    0.026    0.044
 dbcsr_switch_data_area           32347 13.7    0.030    0.031    0.041    0.043
 make_full_single_inverse             1  7.0    0.000    0.000    0.041    0.042
 tddfpt_is_nonorthogonal_psi1_p       7  7.0    0.000    0.000    0.041    0.041
 dbcsr_rep_row_to_rep_col_vec       650  8.6    0.003    0.004    0.019    0.041
 pw_pool_create_pw                11596 10.2    0.025    0.030    0.034    0.041
 mp_bcast_am_src                     22  7.0    0.018    0.028    0.023    0.040
 -------------------------------------------------------------------------------

 The number of warnings for this run is : 2
 
 -------------------------------------------------------------------------------
  **** **** ******  **  PROGRAM ENDED AT                 2025-04-20 16:11:45.491
 ***** ** ***  *** **   PROGRAM RAN ON                              i01r02c06s10
 **    ****   ******    PROGRAM RAN BY                                   di38fab
 ***** **    ** ** **   PROGRAM PROCESS ID                               2570458
  **** **  *******  **  PROGRAM STOPPED IN /hppfs/scratch/04/di38fab/05_MOL/W4-1
                                           1+ALK/ch2f2/SZV/TDDFT/1e-4
