SIRIUS 7.6.1, git hash: https://api.github.com/repos/electronic-structure/SIRIUS/git/ref/tags/v7.6.1
 DBCSR| CPU Multiplication driver                                           XSMM (U)
 DBCSR| Multrec recursion limit                                              512 (U)
 DBCSR| Multiplication stack size                                           1000 (D)
 DBCSR| Maximum elements for images                                    UNLIMITED (U)
 DBCSR| Multiplicative factor virtual images                                   1 (U)
 DBCSR| Use multiplication densification                                       T (D)
 DBCSR| Multiplication size stacks                                             3 (U)
 DBCSR| Use memory pool for CPU allocation                                     F (U)
 DBCSR| Number of 3D layers                                               SINGLE (U)
 DBCSR| Use MPI memory allocation                                              F (U)
 DBCSR| Use RMA algorithm                                                      F (U)
 DBCSR| Use Communication thread                                               T (U)
 DBCSR| Communication thread load                                             75 (D)
 DBCSR| MPI: My process id                                                     0
 DBCSR| MPI: Number of processes                                             128
 DBCSR| OMP: Current number of threads                                         4
 DBCSR| OMP: Max number of threads                                             4
 DBCSR| Split modifier for TAS multiplication algorithm                  1.0E+00 (U)


  **** **** ******  **  PROGRAM STARTED AT               2025-04-21 18:31:00.921
 ***** ** ***  *** **   PROGRAM STARTED ON                 n2cn0391.ab2021.local
 **    ****   ******    PROGRAM STARTED BY                              metdyn02
 ***** **    ** ** **   PROGRAM PROCESS ID                               2331236
  **** **  *******  **  PROGRAM STARTED IN /scratch/hpc-prf-metdyn/metdyn02_Remi
                                           /10_MOL/05_MOL/W4-11+ALK/sih4/DZVP/TD
                                           DFT/RILIM

 CP2K| version string:                 CP2K version 2025.1 (Development Version)
 CP2K| source code revision number:                                  git:4803c37
 CP2K| cp2kflags: omp libint fftw3 libxc libgrpp elpa parallel scalapack mpi_f08
 CP2K|             cosma xsmm plumed2 spglib sirius libvori libbqb libvdwxc hdf5
 CP2K| is freely available from                            https://www.cp2k.org/
 CP2K| Program compiled at                         Thu Apr 10 12:05:05 CEST 2025
 CP2K| Program compiled on                                              n2login1
 CP2K| Program compiled for                                                local
 CP2K| Data directory path    /opt/software/pc2/EB-SW/software/CP2K/2024.1-foss-
 CP2K| Input file name                                                    GW.inp

 GLOBAL| Force Environment number                                              1
 GLOBAL| Basis set file name            /scratch/hpc-prf-metdyn/metdyn02_Remi/BA
 GLOBAL| Potential file name            /pc2/groups/hpc-prf-metdyn/metdyn02_Remi
 GLOBAL| MM Potential file name                                     MM_POTENTIAL
 GLOBAL| Coordinate file name                                      __STD_INPUT__
 GLOBAL| Method name                                                        CP2K
 GLOBAL| Project name                                                       MoS2
 GLOBAL| Run type                                                         ENERGY
 GLOBAL| FFT library                                                       FFTW3
 GLOBAL| Diagonalization library                                            ELPA
 GLOBAL| DGEMM library                                                      BLAS
 GLOBAL| Minimum number of eigenvectors for ELPA usage                        16
 GLOBAL| Orthonormality check for eigenvectors                          DISABLED
 GLOBAL| Matrix multiplication library                                     COSMA
 GLOBAL| All-to-all communication in single precision                          F
 GLOBAL| FFTs using library dependent lengths                                  F
 GLOBAL| Grid backend                                                       AUTO
 GLOBAL| Global print level                                               MEDIUM
 GLOBAL| MPI I/O enabled                                                       T
 GLOBAL| Total number of message passing processes                           128
 GLOBAL| Number of threads for this process                                    4
 GLOBAL| This output is from process                                           0
 GLOBAL| OpenMP stack size per thread (OMP_STACKSIZE)                    default
 GLOBAL| CPU model name                          AMD EPYC 7763 64-Core Processor
 GLOBAL| CPUID                                                              1002

 MEMORY| system memory details [Kb]
 MEMORY|                        rank 0           min           max       average
 MEMORY| MemTotal            263899264     263899264     263899264     263899264
 MEMORY| MemFree             244753384     243901064     245155624     244493342
 MEMORY| Buffers                136964         53088        237564        137146
 MEMORY| Cached                6284896       6284896       8288608       7041974
 MEMORY| Slab                  2127036       1879200       2451416       2108005
 MEMORY| SReclaimable           308304        304964        590800        384906
 MEMORY| MemLikelyFree       251483548     251410124     252688708     252057368


 *** Fundamental physical constants (SI units) ***

 *** Literature: B. J. Mohr and B. N. Taylor,
 ***             CODATA recommended values of the fundamental physical
 ***             constants: 2006, Web Version 5.1
 ***             http://physics.nist.gov/constants

 Speed of light in vacuum [m/s]                             2.99792458000000E+08
 Magnetic constant or permeability of vacuum [N/A**2]       1.25663706143592E-06
 Electric constant or permittivity of vacuum [F/m]          8.85418781762039E-12
 Planck constant (h) [J*s]                                  6.62606896000000E-34
 Planck constant (h-bar) [J*s]                              1.05457162825177E-34
 Elementary charge [C]                                      1.60217648700000E-19
 Electron mass [kg]                                         9.10938215000000E-31
 Electron g factor [ ]                                     -2.00231930436220E+00
 Proton mass [kg]                                           1.67262163700000E-27
 Fine-structure constant                                    7.29735253760000E-03
 Rydberg constant [1/m]                                     1.09737315685270E+07
 Avogadro constant [1/mol]                                  6.02214179000000E+23
 Boltzmann constant [J/K]                                   1.38065040000000E-23
 Atomic mass unit [kg]                                      1.66053878200000E-27
 Bohr radius [m]                                            5.29177208590000E-11

 *** Conversion factors ***

 [u] -> [a.u.]                                              1.82288848426455E+03
 [Angstrom] -> [Bohr] = [a.u.]                              1.88972613288564E+00
 [a.u.] = [Bohr] -> [Angstrom]                              5.29177208590000E-01
 [a.u.] -> [s]                                              2.41888432650478E-17
 [a.u.] -> [fs]                                             2.41888432650478E-02
 [a.u.] -> [J]                                              4.35974393937059E-18
 [a.u.] -> [N]                                              8.23872205491840E-08
 [a.u.] -> [K]                                              3.15774647902944E+05
 [a.u.] -> [kJ/mol]                                         2.62549961709828E+03
 [a.u.] -> [kcal/mol]                                       6.27509468713739E+02
 [a.u.] -> [Pa]                                             2.94210107994716E+13
 [a.u.] -> [bar]                                            2.94210107994716E+08
 [a.u.] -> [atm]                                            2.90362800883016E+08
 [a.u.] -> [eV]                                             2.72113838565563E+01
 [a.u.] -> [Hz]                                             6.57968392072181E+15
 [a.u.] -> [1/cm] (wave numbers)                            2.19474631370540E+05
 [a.u./Bohr**2] -> [1/cm]                                   5.14048714338585E+03
 

 CELL_TOP| Volume [angstrom^3]:                                     27000.000000
 CELL_TOP| Vector a [angstrom    30.000     0.000     0.000   |a| =    30.000000
 CELL_TOP| Vector b [angstrom     0.000    30.000     0.000   |b| =    30.000000
 CELL_TOP| Vector c [angstrom     0.000     0.000    30.000   |c| =    30.000000
 CELL_TOP| Angle (b,c), alpha [degree]:                                90.000000
 CELL_TOP| Angle (a,c), beta  [degree]:                                90.000000
 CELL_TOP| Angle (a,b), gamma [degree]:                                90.000000
 CELL_TOP| Numerically orthorhombic:                                         YES
 CELL_TOP| Periodicity                                                      NONE

 GENERATE|  Preliminary Number of Bonds generated:                             0
 GENERATE|  Achieved consistency in connectivity generation.

 CELL| Volume [angstrom^3]:                                         27000.000000
 CELL| Vector a [angstrom]:      30.000     0.000     0.000   |a| =    30.000000
 CELL| Vector b [angstrom]:       0.000    30.000     0.000   |b| =    30.000000
 CELL| Vector c [angstrom]:       0.000     0.000    30.000   |c| =    30.000000
 CELL| Angle (b,c), alpha [degree]:                                    90.000000
 CELL| Angle (a,c), beta  [degree]:                                    90.000000
 CELL| Angle (a,b), gamma [degree]:                                    90.000000
 CELL| Numerically orthorhombic:                                             YES
 CELL| Periodicity                                                          NONE

 CELL_REF| Volume [angstrom^3]:                                     27000.000000
 CELL_REF| Vector a [angstrom    30.000     0.000     0.000   |a| =    30.000000
 CELL_REF| Vector b [angstrom     0.000    30.000     0.000   |b| =    30.000000
 CELL_REF| Vector c [angstrom     0.000     0.000    30.000   |c| =    30.000000
 CELL_REF| Angle (b,c), alpha [degree]:                                90.000000
 CELL_REF| Angle (a,c), beta  [degree]:                                90.000000
 CELL_REF| Angle (a,b), gamma [degree]:                                90.000000
 CELL_REF| Numerically orthorhombic:                                         YES
 CELL_REF| Periodicity                                                      NONE

 *******************************************************************************
 *******************************************************************************
 **                                                                           **
 **     #####                         ##              ##                      **
 **    ##   ##            ##          ##              ##                      **
 **   ##     ##                       ##            ######                    **
 **   ##     ##  ##   ##  ##   #####  ##  ##   ####   ##    #####    #####    **
 **   ##     ##  ##   ##  ##  ##      ## ##   ##      ##   ##   ##  ##   ##   **
 **   ##  ## ##  ##   ##  ##  ##      ####     ###    ##   ######   ######    **
 **    ##  ###   ##   ##  ##  ##      ## ##      ##   ##   ##       ##        **
 **     #######   #####   ##   #####  ##  ##  ####    ##    #####   ##        **
 **           ##                                                    ##        **
 **                                                                           **
 **                                                ... make the atoms dance   **
 **                                                                           **
 **            Copyright (C) by CP2K developers group (2000-2025)             **
 **                      J. Chem. Phys. 152, 194103 (2020)                    **
 **                                                                           **
 *******************************************************************************

 DFT| Spin restricted Kohn-Sham (RKS) calculation                            RKS
 DFT| Multiplicity                                                             1
 DFT| Number of spin states                                                    1
 DFT| Charge                                                                   0
 DFT| Self-interaction correction (SIC)                                       NO
 DFT| Cutoffs: density                                              1.000000E-10
 DFT|          gradient                                             1.000000E-10
 DFT|          tau                                                  1.000000E-10
 DFT|          cutoff_smoothing_range                               0.000000E+00
 DFT| XC density smoothing                                                  NONE
 DFT| XC derivatives                                                          PW

 FUNCTIONAL| PBE:
 FUNCTIONAL| J.P.Perdew, K.Burke, M.Ernzerhof, Phys. Rev. Letter, vol. 77, n 18,
 FUNCTIONAL|  pp. 3865-3868, (1996)sx=0.750sc=1.000{spin unpolarized}           


 QS| Method:                                                                GAPW
 QS| Density plane wave grid type                        NON-SPHERICAL FULLSPACE
 QS| Number of grid levels:                                                    4
 QS| Density cutoff [a.u.]:                                                250.0
 QS| Multi grid cutoff [a.u.]: 1) grid level                               250.0
 QS|                           2) grid level                                83.3
 QS|                           3) grid level                                27.8
 QS|                           4) grid level                                 9.3
 QS| Grid level progression factor:                                          3.0
 QS| Relative density cutoff [a.u.]:                                        50.0
 QS| Interaction thresholds: eps_pgf_orb:                                1.0E-12
 QS|                         eps_filter_matrix:                          0.0E+00
 QS|                         eps_core_charge:                            1.0E-14
 QS|                         eps_rho_gspace:                             1.0E-12
 QS|                         eps_rho_rspace:                             1.0E-12
 QS|                         eps_gvg_rspace:                             1.0E-06
 QS|                         eps_ppl:                                    1.0E-02
 QS|                         eps_ppnl:                                   1.0E-08
 QS| GAPW|      One center basis from orbital basis primitives
 QS| GAPW|                   eps_fit:                                    1.0E-04
 QS| GAPW|                   eps_iso:                                    1.0E-12
 QS| GAPW|                   eps_svd:                                    1.0E-08
 QS| GAPW|                   eps_cpc:                                    1.0E-12
 QS| GAPW|   atom-r-grid: quadrature:                                     GC_LOG
 QS| GAPW|      atom-s-grid:  max l :                                          6
 QS| GAPW|      max_l_rho0 :                                                   2


 ATOMIC KIND INFORMATION

  1. Atomic kind: H                                     Number of atoms:       4

     Orbital Basis Set                                        aug-DZVP-MOLOPT-ae

       Number of orbital shell sets:                                           1
       Number of orbital shells:                                               5
       Number of primitive Cartesian functions:                                5
       Number of Cartesian basis functions:                                    9
       Number of spherical basis functions:                                    9
       Norm type:                                                              2

       Normalised Cartesian orbitals:

                        Set   Shell   Orbital            Exponent    Coefficient

                          1       1    2s                0.035000       0.000000
                                                         0.111920       0.009149
                                                         0.374948       0.205449
                                                         1.446686       0.373852
                                                        12.248855       0.310040

                          1       2    3s                0.035000       0.000000
                                                         0.111920       0.143650
                                                         0.374948       0.007287
                                                         1.446686      -0.188851
                                                        12.248855      -0.144753

                          1       3    4s                0.035000       0.090463
                                                         0.111920      -0.203934
                                                         0.374948      -0.000376
                                                         1.446686      -0.000051
                                                        12.248855       0.000000

                          1       4    3px               0.035000       0.000000
                                                         0.111920       0.007225
                                                         0.374948       0.280770
                                                         1.446686       0.896497
                                                        12.248855      -0.764411
                          1       4    3py               0.035000       0.000000
                                                         0.111920       0.007225
                                                         0.374948       0.280770
                                                         1.446686       0.896497
                                                        12.248855      -0.764411
                          1       4    3pz               0.035000       0.000000
                                                         0.111920       0.007225
                                                         0.374948       0.280770
                                                         1.446686       0.896497
                                                        12.248855      -0.764411

                          1       5    4px               0.035000       0.011331
                                                         0.111920       0.048737
                                                         0.374948       0.028490
                                                         1.446686       0.035587
                                                        12.248855       0.000000
                          1       5    4py               0.035000       0.011331
                                                         0.111920       0.048737
                                                         0.374948       0.028490
                                                         1.446686       0.035587
                                                        12.248855       0.000000
                          1       5    4pz               0.035000       0.011331
                                                         0.111920       0.048737
                                                         0.374948       0.028490
                                                         1.446686       0.035587
                                                        12.248855       0.000000

     RI Auxiliary Basis Set             RI_aug-DZVP-MOLOPT-ae_N_RI_047_s_p_d_f_g

       Number of orbital shell sets:                                          17
       Number of orbital shells:                                              17
       Number of primitive Cartesian functions:                               17
       Number of Cartesian basis functions:                                   53
       Number of spherical basis functions:                                   47
       Norm type:                                                              2

       Normalised Cartesian orbitals:

                        Set   Shell   Orbital            Exponent    Coefficient

                          1       1    1s                0.236911       0.242019

                          2       1    8px               0.347892       0.380843
                          2       1    8py               0.347892       0.380843
                          2       1    8pz               0.347892       0.380843

                          3       1    2s                0.423897       0.374417

                          4       1    9px               0.493166       0.589089
                          4       1    9py               0.493166       0.589089
                          4       1    9pz               0.493166       0.589089

                          5       1   14dx2              0.625366       0.723843
                          5       1   14dxy              0.625366       1.253733
                          5       1   14dxz              0.625366       1.253733
                          5       1   14dy2              0.625366       0.723843
                          5       1   14dyz              0.625366       1.253733
                          5       1   14dz2              0.625366       0.723843

                          6       1   10px               0.699103       0.911206
                          6       1   10py               0.699103       0.911206
                          6       1   10pz               0.699103       0.911206

                          7       1    3s                0.758464       0.579244

                          8       1   15dx2              0.896802       1.360281
                          8       1   15dxy              0.896802       2.356075
                          8       1   15dxz              0.896802       2.356075
                          8       1   15dy2              0.896802       1.360281
                          8       1   15dyz              0.896802       2.356075
                          8       1   15dz2              0.896802       1.360281

                          9       1   11px               0.991036       1.409457
                          9       1   11py               0.991036       1.409457
                          9       1   11pz               0.991036       1.409457

                         10       1   17fx3              1.198110       2.210915
                         10       1   17fx2y             1.198110       4.943756
                         10       1   17fx2z             1.198110       4.943756
                         10       1   17fxy2             1.198110       4.943756
                         10       1   17fxyz             1.198110       8.562836
                         10       1   17fxz2             1.198110       4.943756
                         10       1   17fy3              1.198110       2.210915
                         10       1   17fy2z             1.198110       4.943756
                         10       1   17fyz2             1.198110       4.943756
                         10       1   17fz3              1.198110       2.210915

                         11       1   16dx2              1.286053       2.556305
                         11       1   16dxy              1.286053       4.427650
                         11       1   16dxz              1.286053       4.427650
                         11       1   16dy2              1.286053       2.556305
                         11       1   16dyz              1.286053       4.427650
                         11       1   16dz2              1.286053       2.556305

                         12       1    4s                1.357095       0.896123

                         13       1   12px               1.404875       2.180155
                         13       1   12py               1.404875       2.180155
                         13       1   12pz               1.404875       2.180155

                         14       1   13px               1.991527       3.372273
                         14       1   13py               1.991527       3.372273
                         14       1   13pz               1.991527       3.372273

                         15       1    5s                2.428204       1.386354

                         16       1    6s                4.344704       2.144768

                         17       1    7s                7.773833       3.318077

       Atomic covalent radius [Angstrom]:                                  0.320

       Atomic van der Waals radius [Angstrom]:                             1.090

     The atoms of this atomic kind are PAW atoms (GAPW):
       Hard Gaussian function radius:                                      1.200
       Rho0 radius:                                                        1.200
       Maximum GTO radius used for PAW projector construction:            24.566

     GAPW Soft Basis Set                                 aug-DZVP-MOLOPT-ae_soft

       Number of orbital shell sets:                                           1
       Number of orbital shells:                                               5
       Number of primitive Cartesian functions:                                4
       Number of Cartesian basis functions:                                    9
       Number of spherical basis functions:                                    9
       Norm type:                                                              2

       Normalised Cartesian orbitals:

                        Set   Shell   Orbital            Exponent    Coefficient

                          1       1    2s                0.035000       0.000000
                                                         0.111920       0.009149
                                                         0.374948       0.205449
                                                         1.446686       0.373852

                          1       2    3s                0.035000       0.000000
                                                         0.111920       0.143650
                                                         0.374948       0.007287
                                                         1.446686      -0.188851

                          1       3    4s                0.035000       0.090463
                                                         0.111920      -0.203934
                                                         0.374948      -0.000376
                                                         1.446686      -0.000051

                          1       4    3px               0.035000       0.000000
                                                         0.111920       0.007225
                                                         0.374948       0.280770
                                                         1.446686       0.896497
                          1       4    3py               0.035000       0.000000
                                                         0.111920       0.007225
                                                         0.374948       0.280770
                                                         1.446686       0.896497
                          1       4    3pz               0.035000       0.000000
                                                         0.111920       0.007225
                                                         0.374948       0.280770
                                                         1.446686       0.896497

                          1       5    4px               0.035000       0.011331
                                                         0.111920       0.048737
                                                         0.374948       0.028490
                                                         1.446686       0.035587
                          1       5    4py               0.035000       0.011331
                                                         0.111920       0.048737
                                                         0.374948       0.028490
                                                         1.446686       0.035587
                          1       5    4pz               0.035000       0.011331
                                                         0.111920       0.048737
                                                         0.374948       0.028490
                                                         1.446686       0.035587

     AE Potential information for                                            ALL

       Description:                                       All-electron potential
                                          Krack, Parrinello, PCCP 2, 2105 (2000)

       Gaussian exponent of the core charge distribution:              12.500000
       Electronic configuration (s p d ...):                           1   0   0

  2. Atomic kind: SI                                    Number of atoms:       1

     Orbital Basis Set                                        aug-DZVP-MOLOPT-ae

       Number of orbital shell sets:                                           3
       Number of orbital shells:                                              12
       Number of primitive Cartesian functions:                               19
       Number of Cartesian basis functions:                                   39
       Number of spherical basis functions:                                   34
       Norm type:                                                              2

       Normalised Cartesian orbitals:

                        Set   Shell   Orbital            Exponent    Coefficient

                          1       1    1s                0.060000       0.145785
                                                         0.100481      -0.105903
                                                         0.180000       0.018660
                                                         0.360587       0.005297
                                                         1.403852       0.003046
                                                         4.231639       0.000000
                                                        12.916447       0.000000
                                                        41.955626       0.000000
                                                       179.802308       0.000000

                          1       2    2px               0.060000       0.000000
                                                         0.100481      -0.006763
                                                         0.180000       0.000000
                                                         0.360587      -0.014178
                                                         1.403852       0.794875
                                                         4.231639       4.414565
                                                        12.916447       9.497975
                                                        41.955626      10.730414
                                                       179.802308      10.245454
                          1       2    2py               0.060000       0.000000
                                                         0.100481      -0.006763
                                                         0.180000       0.000000
                                                         0.360587      -0.014178
                                                         1.403852       0.794875
                                                         4.231639       4.414565
                                                        12.916447       9.497975
                                                        41.955626      10.730414
                                                       179.802308      10.245454
                          1       2    2pz               0.060000       0.000000
                                                         0.100481      -0.006763
                                                         0.180000       0.000000
                                                         0.360587      -0.014178
                                                         1.403852       0.794875
                                                         4.231639       4.414565
                                                        12.916447       9.497975
                                                        41.955626      10.730414
                                                       179.802308      10.245454

                          1       3    3px               0.060000       0.000000
                                                         0.100481       0.001564
                                                         0.180000       0.000000
                                                         0.360587       0.367681
                                                         1.403852       0.244556
                                                         4.231639      -0.216075
                                                        12.916447       0.714115
                                                        41.955626       1.492190
                                                       179.802308       0.027049
                          1       3    3py               0.060000       0.000000
                                                         0.100481       0.001564
                                                         0.180000       0.000000
                                                         0.360587       0.367681
                                                         1.403852       0.244556
                                                         4.231639      -0.216075
                                                        12.916447       0.714115
                                                        41.955626       1.492190
                                                       179.802308       0.027049
                          1       3    3pz               0.060000       0.000000
                                                         0.100481       0.001564
                                                         0.180000       0.000000
                                                         0.360587       0.367681
                                                         1.403852       0.244556
                                                         4.231639      -0.216075
                                                        12.916447       0.714115
                                                        41.955626       1.492190
                                                       179.802308       0.027049

                          1       4    4px               0.060000       0.000000
                                                         0.100481       0.079886
                                                         0.180000       0.000000
                                                         0.360587      -0.003086
                                                         1.403852      -0.142002
                                                         4.231639       1.747610
                                                        12.916447       0.347410
                                                        41.955626       1.618261
                                                       179.802308       4.656717
                          1       4    4py               0.060000       0.000000
                                                         0.100481       0.079886
                                                         0.180000       0.000000
                                                         0.360587      -0.003086
                                                         1.403852      -0.142002
                                                         4.231639       1.747610
                                                        12.916447       0.347410
                                                        41.955626       1.618261
                                                       179.802308       4.656717
                          1       4    4pz               0.060000       0.000000
                                                         0.100481       0.079886
                                                         0.180000       0.000000
                                                         0.360587      -0.003086
                                                         1.403852      -0.142002
                                                         4.231639       1.747610
                                                        12.916447       0.347410
                                                        41.955626       1.618261
                                                       179.802308       4.656717

                          1       5    5px               0.060000       0.023693
                                                         0.100481       0.012269
                                                         0.180000       0.044284
                                                         0.360587       0.047120
                                                         1.403852       0.053466
                                                         4.231639       0.000000
                                                        12.916447       0.000000
                                                        41.955626       0.000000
                                                       179.802308       0.000000
                          1       5    5py               0.060000       0.023693
                                                         0.100481       0.012269
                                                         0.180000       0.044284
                                                         0.360587       0.047120
                                                         1.403852       0.053466
                                                         4.231639       0.000000
                                                        12.916447       0.000000
                                                        41.955626       0.000000
                                                       179.802308       0.000000
                          1       5    5pz               0.060000       0.023693
                                                         0.100481       0.012269
                                                         0.180000       0.044284
                                                         0.360587       0.047120
                                                         1.403852       0.053466
                                                         4.231639       0.000000
                                                        12.916447       0.000000
                                                        41.955626       0.000000
                                                       179.802308       0.000000

                          1       6    3dx2              0.060000       0.000000
                                                         0.100481       0.004095
                                                         0.180000       0.000000
                                                         0.360587       0.221532
                                                         1.403852       0.655062
                                                         4.231639       0.092777
                                                        12.916447       2.095708
                                                        41.955626      -9.285169
                                                       179.802308      59.569813
                          1       6    3dxy              0.060000       0.000000
                                                         0.100481       0.007093
                                                         0.180000       0.000000
                                                         0.360587       0.383704
                                                         1.403852       1.134601
                                                         4.231639       0.160695
                                                        12.916447       3.629873
                                                        41.955626     -16.082385
                                                       179.802308     103.177942
                          1       6    3dxz              0.060000       0.000000
                                                         0.100481       0.007093
                                                         0.180000       0.000000
                                                         0.360587       0.383704
                                                         1.403852       1.134601
                                                         4.231639       0.160695
                                                        12.916447       3.629873
                                                        41.955626     -16.082385
                                                       179.802308     103.177942
                          1       6    3dy2              0.060000       0.000000
                                                         0.100481       0.004095
                                                         0.180000       0.000000
                                                         0.360587       0.221532
                                                         1.403852       0.655062
                                                         4.231639       0.092777
                                                        12.916447       2.095708
                                                        41.955626      -9.285169
                                                       179.802308      59.569813
                          1       6    3dyz              0.060000       0.000000
                                                         0.100481       0.007093
                                                         0.180000       0.000000
                                                         0.360587       0.383704
                                                         1.403852       1.134601
                                                         4.231639       0.160695
                                                        12.916447       3.629873
                                                        41.955626     -16.082385
                                                       179.802308     103.177942
                          1       6    3dz2              0.060000       0.000000
                                                         0.100481       0.004095
                                                         0.180000       0.000000
                                                         0.360587       0.221532
                                                         1.403852       0.655062
                                                         4.231639       0.092777
                                                        12.916447       2.095708
                                                        41.955626      -9.285169
                                                       179.802308      59.569813

                          1       7    4dx2              0.060000      -0.000150
                                                         0.100481      -0.013760
                                                         0.180000      -0.045831
                                                         0.360587       0.000084
                                                         1.403852       0.000903
                                                         4.231639       0.000000
                                                        12.916447       0.000000
                                                        41.955626       0.000000
                                                       179.802308       0.000000
                          1       7    4dxy              0.060000      -0.000260
                                                         0.100481      -0.023833
                                                         0.180000      -0.079382
                                                         0.360587       0.000145
                                                         1.403852       0.001565
                                                         4.231639       0.000000
                                                        12.916447       0.000000
                                                        41.955626       0.000000
                                                       179.802308       0.000000
                          1       7    4dxz              0.060000      -0.000260
                                                         0.100481      -0.023833
                                                         0.180000      -0.079382
                                                         0.360587       0.000145
                                                         1.403852       0.001565
                                                         4.231639       0.000000
                                                        12.916447       0.000000
                                                        41.955626       0.000000
                                                       179.802308       0.000000
                          1       7    4dy2              0.060000      -0.000150
                                                         0.100481      -0.013760
                                                         0.180000      -0.045831
                                                         0.360587       0.000084
                                                         1.403852       0.000903
                                                         4.231639       0.000000
                                                        12.916447       0.000000
                                                        41.955626       0.000000
                                                       179.802308       0.000000
                          1       7    4dyz              0.060000      -0.000260
                                                         0.100481      -0.023833
                                                         0.180000      -0.079382
                                                         0.360587       0.000145
                                                         1.403852       0.001565
                                                         4.231639       0.000000
                                                        12.916447       0.000000
                                                        41.955626       0.000000
                                                       179.802308       0.000000
                          1       7    4dz2              0.060000      -0.000150
                                                         0.100481      -0.013760
                                                         0.180000      -0.045831
                                                         0.360587       0.000084
                                                         1.403852       0.000903
                                                         4.231639       0.000000
                                                        12.916447       0.000000
                                                        41.955626       0.000000
                                                       179.802308       0.000000

                          1       8    4fx3              0.060000      -0.000093
                                                         0.100481       0.000079
                                                         0.180000       0.028814
                                                         0.360587       0.012506
                                                         1.403852       0.266271
                                                         4.231639       0.000000
                                                        12.916447       0.000000
                                                        41.955626       0.000000
                                                       179.802308       0.000000
                          1       8    4fx2y             0.060000      -0.000209
                                                         0.100481       0.000177
                                                         0.180000       0.064431
                                                         0.360587       0.027965
                                                         1.403852       0.595400
                                                         4.231639       0.000000
                                                        12.916447       0.000000
                                                        41.955626       0.000000
                                                       179.802308       0.000000
                          1       8    4fx2z             0.060000      -0.000209
                                                         0.100481       0.000177
                                                         0.180000       0.064431
                                                         0.360587       0.027965
                                                         1.403852       0.595400
                                                         4.231639       0.000000
                                                        12.916447       0.000000
                                                        41.955626       0.000000
                                                       179.802308       0.000000
                          1       8    4fxy2             0.060000      -0.000209
                                                         0.100481       0.000177
                                                         0.180000       0.064431
                                                         0.360587       0.027965
                                                         1.403852       0.595400
                                                         4.231639       0.000000
                                                        12.916447       0.000000
                                                        41.955626       0.000000
                                                       179.802308       0.000000
                          1       8    4fxyz             0.060000      -0.000362
                                                         0.100481       0.000306
                                                         0.180000       0.111597
                                                         0.360587       0.048436
                                                         1.403852       1.031263
                                                         4.231639       0.000000
                                                        12.916447       0.000000
                                                        41.955626       0.000000
                                                       179.802308       0.000000
                          1       8    4fxz2             0.060000      -0.000209
                                                         0.100481       0.000177
                                                         0.180000       0.064431
                                                         0.360587       0.027965
                                                         1.403852       0.595400
                                                         4.231639       0.000000
                                                        12.916447       0.000000
                                                        41.955626       0.000000
                                                       179.802308       0.000000
                          1       8    4fy3              0.060000      -0.000093
                                                         0.100481       0.000079
                                                         0.180000       0.028814
                                                         0.360587       0.012506
                                                         1.403852       0.266271
                                                         4.231639       0.000000
                                                        12.916447       0.000000
                                                        41.955626       0.000000
                                                       179.802308       0.000000
                          1       8    4fy2z             0.060000      -0.000209
                                                         0.100481       0.000177
                                                         0.180000       0.064431
                                                         0.360587       0.027965
                                                         1.403852       0.595400
                                                         4.231639       0.000000
                                                        12.916447       0.000000
                                                        41.955626       0.000000
                                                       179.802308       0.000000
                          1       8    4fyz2             0.060000      -0.000209
                                                         0.100481       0.000177
                                                         0.180000       0.064431
                                                         0.360587       0.027965
                                                         1.403852       0.595400
                                                         4.231639       0.000000
                                                        12.916447       0.000000
                                                        41.955626       0.000000
                                                       179.802308       0.000000
                          1       8    4fz3              0.060000      -0.000093
                                                         0.100481       0.000079
                                                         0.180000       0.028814
                                                         0.360587       0.012506
                                                         1.403852       0.266271
                                                         4.231639       0.000000
                                                        12.916447       0.000000
                                                        41.955626       0.000000
                                                       179.802308       0.000000

                          2       1    1s               34.220232       0.872960
                                                         3.601959      -1.016736
                                                         1.334327      -0.408610
                                                         0.333383      -0.023738
                                                         0.146508      -0.006273

                          2       2    2s               34.220232      -0.087811
                                                         3.601959      -0.206573
                                                         1.334327      -0.029783
                                                         0.333383       0.284797
                                                         0.146508       0.027852

                          2       3    3s               34.220232      -0.164766
                                                         3.601959       0.551335
                                                         1.334327      -0.371880
                                                         0.333383      -0.065499
                                                         0.146508       0.214046

                          3       1    1s             6903.595265       2.874667
                                                      1038.479710       5.597613
                                                       235.942605       7.828442
                                                        66.091579       8.092699
                                                        19.821530       2.831208

     RI Auxiliary Basis Set             RI_aug-DZVP-MOLOPT-ae_N_RI_115_s_p_d_f_g

       Number of orbital shell sets:                                          27
       Number of orbital shells:                                              27
       Number of primitive Cartesian functions:                               27
       Number of Cartesian basis functions:                                  151
       Number of spherical basis functions:                                  115
       Norm type:                                                              2

       Normalised Cartesian orbitals:

                        Set   Shell   Orbital            Exponent    Coefficient

                          1       1   26gx4              0.173535       0.009011
                          1       1   26gx3y             0.173535       0.023840
                          1       1   26gx3z             0.173535       0.023840
                          1       1   26gx2y2            0.173535       0.030777
                          1       1   26gx2yz            0.173535       0.053307
                          1       1   26gx2z2            0.173535       0.030777
                          1       1   26gxy3             0.173535       0.023840
                          1       1   26gxy2z            0.173535       0.053307
                          1       1   26gxyz2            0.173535       0.053307
                          1       1   26gxz3             0.173535       0.023840
                          1       1   26gy4              0.173535       0.009011
                          1       1   26gy3z             0.173535       0.023840
                          1       1   26gy2z2            0.173535       0.030777
                          1       1   26gyz3             0.173535       0.023840
                          1       1   26gz4              0.173535       0.009011

                          2       1    8px               0.173957       0.160137
                          2       1    8py               0.173957       0.160137
                          2       1    8pz               0.173957       0.160137

                          3       1   20fx3              0.176582       0.029757
                          3       1   20fx2y             0.176582       0.066538
                          3       1   20fx2z             0.176582       0.066538
                          3       1   20fxy2             0.176582       0.066538
                          3       1   20fxyz             0.176582       0.115247
                          3       1   20fxz2             0.176582       0.066538
                          3       1   20fy3              0.176582       0.029757
                          3       1   20fy2z             0.176582       0.066538
                          3       1   20fyz2             0.176582       0.066538
                          3       1   20fz3              0.176582       0.029757

                          4       1    1s                0.191123       0.206013

                          5       1   14dx2              0.236390       0.131905
                          5       1   14dxy              0.236390       0.228466
                          5       1   14dxz              0.236390       0.228466
                          5       1   14dy2              0.236390       0.131905
                          5       1   14dyz              0.236390       0.228466
                          5       1   14dz2              0.236390       0.131905

                          6       1   21fx3              0.378984       0.165902
                          6       1   21fx2y             0.378984       0.370967
                          6       1   21fx2z             0.378984       0.370967
                          6       1   21fxy2             0.378984       0.370967
                          6       1   21fxyz             0.378984       0.642534
                          6       1   21fxz2             0.378984       0.370967
                          6       1   21fy3              0.378984       0.165902
                          6       1   21fy2z             0.378984       0.370967
                          6       1   21fyz2             0.378984       0.370967
                          6       1   21fz3              0.378984       0.165902

                          7       1    2s                0.382323       0.346523

                          8       1   27gx4              0.384735       0.080469
                          8       1   27gx3y             0.384735       0.212902
                          8       1   27gx3z             0.384735       0.212902
                          8       1   27gx2y2            0.384735       0.274855
                          8       1   27gx2yz            0.384735       0.476062
                          8       1   27gx2z2            0.384735       0.274855
                          8       1   27gxy3             0.384735       0.212902
                          8       1   27gxy2z            0.384735       0.476062
                          8       1   27gxyz2            0.384735       0.476062
                          8       1   27gxz3             0.384735       0.212902
                          8       1   27gy4              0.384735       0.080469
                          8       1   27gy3z             0.384735       0.212902
                          8       1   27gy2z2            0.384735       0.274855
                          8       1   27gyz3             0.384735       0.212902
                          8       1   27gz4              0.384735       0.080469

                          9       1    9px               0.392470       0.442791
                          9       1    9py               0.392470       0.442791
                          9       1    9pz               0.392470       0.442791

                         10       1   15dx2              0.565555       0.607072
                         10       1   15dxy              0.565555       1.051480
                         10       1   15dxz              0.565555       1.051480
                         10       1   15dy2              0.565555       0.607072
                         10       1   15dyz              0.565555       1.051480
                         10       1   15dz2              0.565555       0.607072

                         11       1   22fx3              0.699142       0.658002
                         11       1   22fx2y             0.699142       1.471337
                         11       1   22fx2z             0.699142       1.471337
                         11       1   22fxy2             0.699142       1.471337
                         11       1   22fxyz             0.699142       2.548430
                         11       1   22fxz2             0.699142       1.471337
                         11       1   22fy3              0.699142       0.658002
                         11       1   22fy2z             0.699142       1.471337
                         11       1   22fyz2             0.699142       1.471337
                         11       1   22fz3              0.699142       0.658002

                         12       1   10px               1.141365       1.681592
                         12       1   10py               1.141365       1.681592
                         12       1   10pz               1.141365       1.681592

                         13       1    3s                1.163124       0.798233

                         14       1   23fx3              1.297266       2.644052
                         14       1   23fx2y             1.297266       5.912281
                         14       1   23fx2z             1.297266       5.912281
                         14       1   23fxy2             1.297266       5.912281
                         14       1   23fxyz             1.297266      10.240371
                         14       1   23fxz2             1.297266       5.912281
                         14       1   23fy3              1.297266       2.644052
                         14       1   23fy2z             1.297266       5.912281
                         14       1   23fyz2             1.297266       5.912281
                         14       1   23fz3              1.297266       2.644052

                         15       1   16dx2              1.381254       2.896597
                         15       1   16dxy              1.381254       5.017053
                         15       1   16dxz              1.381254       5.017053
                         15       1   16dy2              1.381254       2.896597
                         15       1   16dyz              1.381254       5.017053
                         15       1   16dz2              1.381254       2.896597

                         16       1   24fx3              2.374668      10.305312
                         16       1   24fx2y             2.374668      23.043379
                         16       1   24fx2z             2.374668      23.043379
                         16       1   24fxy2             2.374668      23.043379
                         16       1   24fxyz             2.374668      39.912303
                         16       1   24fxz2             2.374668      23.043379
                         16       1   24fy3              2.374668      10.305312
                         16       1   24fy2z             2.374668      23.043379
                         16       1   24fyz2             2.374668      23.043379
                         16       1   24fz3              2.374668      10.305312

                         17       1   17dx2              3.319021      13.433119
                         17       1   17dxy              3.319021      23.266845
                         17       1   17dxz              3.319021      23.266845
                         17       1   17dy2              3.319021      13.433119
                         17       1   17dyz              3.319021      23.266845
                         17       1   17dz2              3.319021      13.433119

                         18       1   25fx3              4.323041      39.671681
                         18       1   25fx2y             4.323041      88.708576
                         18       1   25fx2z             4.323041      88.708576
                         18       1   25fxy2             4.323041      88.708576
                         18       1   25fxyz             4.323041     153.647761
                         18       1   25fxz2             4.323041      88.708576
                         18       1   25fy3              4.323041      39.671681
                         18       1   25fy2z             4.323041      88.708576
                         18       1   25fyz2             4.323041      88.708576
                         18       1   25fz3              4.323041      39.671681

                         19       1   11px               4.448170       9.208031
                         19       1   11py               4.448170       9.208031
                         19       1   11pz               4.448170       9.208031

                         20       1    4s                4.784075       2.305465

                         21       1   18dx2              7.919073      61.530369
                         21       1   18dxy              7.919073     106.573726
                         21       1   18dxz              7.919073     106.573726
                         21       1   18dy2              7.919073      61.530369
                         21       1   18dyz              7.919073     106.573726
                         21       1   18dz2              7.919073      61.530369

                         22       1   12px              18.406762      54.345280
                         22       1   12py              18.406762      54.345280
                         22       1   12pz              18.406762      54.345280

                         23       1   19dx2             18.841615     280.456940
                         23       1   19dxy             18.841615     485.765669
                         23       1   19dxz             18.841615     485.765669
                         23       1   19dy2             18.841615     280.456940
                         23       1   19dyz             18.841615     485.765669
                         23       1   19dz2             18.841615     280.456940

                         24       1    5s               19.590769       6.636647

                         25       1   13px              67.058351     273.530761
                         25       1   13py              67.058351     273.530761
                         25       1   13pz              67.058351     273.530761

                         26       1    6s               69.560069      17.166434

                         27       1    7s              234.515052      42.710842

       Atomic covalent radius [Angstrom]:                                  1.110

       Atomic van der Waals radius [Angstrom]:                             2.100

     The atoms of this atomic kind are PAW atoms (GAPW):
       Hard Gaussian function radius:                                      1.512
       Rho0 radius:                                                        1.512
       Maximum GTO radius used for PAW projector construction:            24.566

     GAPW Soft Basis Set                                 aug-DZVP-MOLOPT-ae_soft

       Number of orbital shell sets:                                           3
       Number of orbital shells:                                              12
       Number of primitive Cartesian functions:                               10
       Number of Cartesian basis functions:                                   39
       Number of spherical basis functions:                                   34
       Norm type:                                                              2

       Normalised Cartesian orbitals:

                        Set   Shell   Orbital            Exponent    Coefficient

                          1       1    1s                0.060000       0.145785
                                                         0.100481      -0.105903
                                                         0.180000       0.018660
                                                         0.360587       0.005297
                                                         1.403852       0.003046
                                                         4.231639       0.000000

                          1       2    2px               0.060000       0.000000
                                                         0.100481      -0.006763
                                                         0.180000       0.000000
                                                         0.360587      -0.014178
                                                         1.403852       0.794875
                                                         4.231639       0.000000
                          1       2    2py               0.060000       0.000000
                                                         0.100481      -0.006763
                                                         0.180000       0.000000
                                                         0.360587      -0.014178
                                                         1.403852       0.794875
                                                         4.231639       0.000000
                          1       2    2pz               0.060000       0.000000
                                                         0.100481      -0.006763
                                                         0.180000       0.000000
                                                         0.360587      -0.014178
                                                         1.403852       0.794875
                                                         4.231639       0.000000

                          1       3    3px               0.060000       0.000000
                                                         0.100481       0.001564
                                                         0.180000       0.000000
                                                         0.360587       0.367681
                                                         1.403852       0.244556
                                                         4.231639       0.000000
                          1       3    3py               0.060000       0.000000
                                                         0.100481       0.001564
                                                         0.180000       0.000000
                                                         0.360587       0.367681
                                                         1.403852       0.244556
                                                         4.231639       0.000000
                          1       3    3pz               0.060000       0.000000
                                                         0.100481       0.001564
                                                         0.180000       0.000000
                                                         0.360587       0.367681
                                                         1.403852       0.244556
                                                         4.231639       0.000000

                          1       4    4px               0.060000       0.000000
                                                         0.100481       0.079886
                                                         0.180000       0.000000
                                                         0.360587      -0.003086
                                                         1.403852      -0.142002
                                                         4.231639       0.000000
                          1       4    4py               0.060000       0.000000
                                                         0.100481       0.079886
                                                         0.180000       0.000000
                                                         0.360587      -0.003086
                                                         1.403852      -0.142002
                                                         4.231639       0.000000
                          1       4    4pz               0.060000       0.000000
                                                         0.100481       0.079886
                                                         0.180000       0.000000
                                                         0.360587      -0.003086
                                                         1.403852      -0.142002
                                                         4.231639       0.000000

                          1       5    5px               0.060000       0.023693
                                                         0.100481       0.012269
                                                         0.180000       0.044284
                                                         0.360587       0.047120
                                                         1.403852       0.053466
                                                         4.231639       0.000000
                          1       5    5py               0.060000       0.023693
                                                         0.100481       0.012269
                                                         0.180000       0.044284
                                                         0.360587       0.047120
                                                         1.403852       0.053466
                                                         4.231639       0.000000
                          1       5    5pz               0.060000       0.023693
                                                         0.100481       0.012269
                                                         0.180000       0.044284
                                                         0.360587       0.047120
                                                         1.403852       0.053466
                                                         4.231639       0.000000

                          1       6    3dx2              0.060000       0.000000
                                                         0.100481       0.004095
                                                         0.180000       0.000000
                                                         0.360587       0.221532
                                                         1.403852       0.655062
                                                         4.231639       0.092777
                          1       6    3dxy              0.060000       0.000000
                                                         0.100481       0.007093
                                                         0.180000       0.000000
                                                         0.360587       0.383704
                                                         1.403852       1.134601
                                                         4.231639       0.160695
                          1       6    3dxz              0.060000       0.000000
                                                         0.100481       0.007093
                                                         0.180000       0.000000
                                                         0.360587       0.383704
                                                         1.403852       1.134601
                                                         4.231639       0.160695
                          1       6    3dy2              0.060000       0.000000
                                                         0.100481       0.004095
                                                         0.180000       0.000000
                                                         0.360587       0.221532
                                                         1.403852       0.655062
                                                         4.231639       0.092777
                          1       6    3dyz              0.060000       0.000000
                                                         0.100481       0.007093
[...]
 library.
 https://doi.org/10.1016/j.parco.2014.03.012

 A. Marek, V. Blum, R. Johanni, V. Havu, B. Lang, T. Auckenthaler, A. Heinecke, 
 H. Bungartz, H. Lederer.
 J. Phys. Condens. Matter 26, 213201 (2014).
 The ELPA library: scalable parallel eigenvalue solutions for electronic 
 structure theory and computational science.
 https://doi.org/10.1088/0953-8984/26/21/213201

 M. Guidon, J. Hutter, J. VandeVondele.
 J. Chem. Theory Comput. 5, 3010-3021 (2009).
 Robust Periodic Hartree-Fock Exchange for Large-Scale Simulations Using 
 Gaussian Basis Sets.
 https://doi.org/10.1021/ct900494g

 M. Guidon, F. Schiffmann, J. Hutter, J. VandeVondele.
 J. Chem. Phys. 128, 214104 (2008).
 Ab initio molecular dynamics using hybrid density functionals.
 https://doi.org/10.1063/1.2931945

 L. Genovese, T. Deutsch, S. Goedecker.
 J. Chem. Phys. 127, 054704 (2007).
 Efficient and accurate three-dimensional Poisson solver for surface problems.
 https://doi.org/10.1063/1.2754685

 J. VandeVondele, J. Hutter.
 J. Chem. Phys. 127, 114105 (2007).
 Gaussian basis sets for accurate calculations on molecular systems in gas and 
 condensed phases.
 https://doi.org/10.1063/1.2770708

 L. Genovese, T. Deutsch, A. Neelov, S. Goedecker, G. Beylkin.
 J. Chem. Phys. 125, 074105 (2006).
 Efficient solution of Poisson's equation with free boundary conditions.
 https://doi.org/10.1063/1.2335442

 M. Iannuzzi, T. Chassaing, T. Wallman, J. Hutter.
 CHIMIA 59, 499-503 (2005).
 Ground and excited state density functional calculations with the Gaussian and 
 augmented-plane-wave method.
 https://doi.org/10.2533/000942905777676164

 M. Frigo, S. G. Johnson.
 Proc. IEEE 93, 216-231 (2005).
 The design and implementation of FFTW3.
 https://doi.org/10.1109/JPROC.2004.840301

 R. L. Martin.
 J. Chem. Phys. 118, 4775-4777 (2003).
 Natural transition orbitals.
 https://doi.org/10.1063/1.1558471

 M. Krack, M. Parrinello.
 Phys. Chem. Chem. Phys. 2, 2105-2112 (2000).
 All-electron ab-initio molecular dynamics.
 https://doi.org/10.1039/b001167n

 G. Lippert, J. Hutter, M. Parrinello.
 Theor. Chem. Acc. 103, 124-140 (1999).
 The Gaussian and augmented-plane-wave density functional method for ab initio 
 molecular dynamics simulations.
 https://doi.org/10.1007/s002140050523

 J. P. Perdew, K. Burke, M. Ernzerhof.
 Phys. Rev. Lett. 77, 3865-3868 (1996).
 Generalized gradient approximation made simple.
 https://doi.org/10.1103/PhysRevLett.77.3865


 -------------------------------------------------------------------------------
 -                                                                             -
 -                                T I M I N G                                  -
 -                                                                             -
 -------------------------------------------------------------------------------
 SUBROUTINE                       CALLS  ASD         SELF TIME        TOTAL TIME
                                MAXIMUM       AVERAGE  MAXIMUM  AVERAGE  MAXIMUM
 CP2K                                 1  1.0    0.023    0.052  404.280  404.285
 qs_energies                          1  2.0    0.000    0.000  403.946  403.952
 qs_energies_properties               1  3.0    0.000    0.000  236.832  236.835
 tddfpt                               1  4.0    0.000    0.000  236.832  236.835
 tddfpt_energies                      1  5.0    0.000    0.000  236.812  236.815
 tddfpt_davidson_solver               1  6.0    0.000    0.001  235.718  235.722
 tddfpt_compute_Aop_evects            6  7.0    0.000    0.000  235.070  235.073
 fhxc_kernel                          6  8.0    0.005    0.006  214.252  214.255
 scf_env_do_scf                       1  3.0    0.000    0.000  166.494  166.501
 scf_env_do_scf_inner_loop           63  4.0    0.001    0.003  166.494  166.501
 qs_ks_update_qs_env                 63  5.0    0.000    0.001  134.752  134.770
 rebuild_ks_matrix                   63  6.0    0.000    0.000  134.747  134.765
 qs_ks_build_kohn_sham_matrix        63  7.0    0.009    0.011  134.747  134.765
 fft_wrap_pw1pw2                   3737 11.0    0.080    0.103  123.314  128.394
 fft_wrap_pw1pw2_250               2633 12.0    3.688    4.512  118.349  125.362
 fft3d_ps                          3737 13.0   25.073   30.393  108.012  114.897
 pw_poisson_solve                   183  9.3    1.134    1.594  106.345  108.084
 tddfpt_apply_coulomb               120  9.0    0.002    0.003   94.587   96.410
 mp_alltoall_z22v                  3737 15.0   77.250   83.236   77.250   83.236
 ps_wavelet_solve                   183 10.3   16.011   20.404   74.331   75.509
 qs_rho_update_rho_low              185  7.6    0.002    0.003   63.253   63.257
 calculate_rho_elec                 185  8.6    0.362    0.457   62.376   62.379
 integrate_four_center              303  9.8   12.188   24.153   61.750   61.808
 mp_sync                           1633 11.4   46.630   58.261   46.630   58.261
 xc_pw_derive                      1101 11.0    0.010    0.012   51.341   52.865
 x_to_yz                           1714 13.7    2.742    4.241   43.432   50.392
 transfer_pw2rs                     916 10.9    0.017    0.022   42.785   43.560
 tddfpt_apply_xc_analytic           120  9.0    0.263    0.321   42.377   43.320
 hfx_ks_matrix                       63  8.0    0.001    0.001   41.917   41.944
 yz_to_x                           1655 14.3    2.450    2.729   38.981   41.759
 mp_alltoall_d54                    183 11.3   26.043   40.008   26.043   40.008
 mp_waitany                       42726 12.7   30.150   39.651   30.150   39.651
 density_rs2pw                      185  9.6    0.008    0.010   37.444   39.338
 integrate_four_center_main         303 10.8    0.318   29.994    0.429   36.089
 integrate_v_rspace                 183  9.0    0.005    0.006   35.015   35.896
 mp_alltoall_d45                    184 11.3   33.255   35.497   33.255   35.497
 potential_pw2rs                    183 10.0    0.028    0.030   34.872   35.192
 xc_pw_divergence                   183 10.7    0.005    0.006   34.067   34.924
 transfer_pw2rs_250                 367 11.6    4.207    4.712   29.324   31.098
 xc_calc_2nd_deriv_analytical       360 10.1    1.423    1.838   24.854   25.181
 prepare_gapw_den                   184  8.6    0.003    0.003   23.584   24.731
 grid_collocate_task_list           185  9.6   23.074   24.595   23.074   24.595
 transfer_rs2pw                     925 10.6    0.029    0.034   22.509   23.379
 qs_vxc_create                       63  8.0    0.001    0.001   23.204   23.211
 xc_vxc_pw_create                    63  9.0    0.212    0.294   23.203   23.210
 integrate_vhg0_rspace              183  9.3    0.225    0.282   22.284   22.552
 tddfpt_apply_hfx                     6  8.0    0.001    0.002   20.639   20.639
 tddft_hfx_matrix                   240  9.0    0.002    0.010   19.838   19.881
 mp_isend_dm3                      7366 12.7    8.014   18.562    8.014   18.562
 put_rho0_on_grid                   184  9.6    0.375    0.488   16.710   17.857
 mp_sum_d                          2636  7.6    8.004   16.658    8.004   16.658
 sum_up_and_integrate                63  8.0    0.001    0.001   14.190   14.402
 transfer_rs2pw_250                 370 11.6    4.714    5.016   12.253   13.149
 xc_rho_set_and_dset_create          64 10.0    0.243    0.348   11.088   11.976
 mp_waitall_1                    248214 13.3    8.216   11.266    8.216   11.266
 mp_alltoall_d11v                 11048 11.5    5.770    9.215    5.770    9.215
 transfer_pw2rs_90                  183 12.0    0.617    0.837    5.796    8.893
 transfer_pw2rs_30                  183 12.0    2.019    2.194    6.820    8.331
 gspace_mixing                       62  5.0    0.121    0.153    8.137    8.137
 fft_wrap_pw1pw2_90                 368 11.8    0.105    0.191    3.951    7.421
 calculate_rho_atom                 368  9.6    0.929    6.580    0.929    6.580
 integrate_four_center_bin        31806 11.8    0.112    6.095    0.112    6.095
 cp2k_distribution_to_z_slices      183 10.3    1.007    1.278    5.119    6.036
 gaVxcgb_GC                         183  9.7    0.052    6.020    0.052    6.020
 mp_sum_dv                         9043  8.9    5.668    5.959    5.668    5.959
 transfer_rs2pw_90                  185 11.6    0.762    0.893    5.523    5.897
 pw_gather_p                       1840 13.2    3.821    5.865    3.821    5.865
 pw_derive                         1650 11.8    4.879    5.509    4.879    5.509
 broyden_mixing                      62  6.0    4.460    4.524    4.707    4.724
 pw_scatter_p                      1897 12.7    3.862    4.465    3.862    4.465
 Vh_1c_gg_integrals                 183  9.3    0.022    0.775    1.523    4.461
 calculate_xc_2nd_deriv_atom        120  9.0    0.030    0.351    0.089    4.418
 rs_grid_zero                       918 11.8    4.088    4.273    4.088    4.273
 transfer_rs2pw_30                  185 11.6    1.187    1.356    3.844    4.241
 pw_integral_ab_c1d_c1d_gs          183 10.3    0.697    0.793    1.675    3.858
 pw_copy                           2510 10.9    3.536    3.856    3.536    3.856
 mp_sum_dm                         2849  9.8    2.319    3.701    2.319    3.701
 mp_sendrecv_dv                   46990 12.6    3.224    3.568    3.224    3.568
 pw_poisson_set                     184 10.3    0.004    0.005    3.019    3.096
 pw_copy_to_array                  1840 13.2    2.202    3.065    2.202    3.065
 mp_irecv_dm3                      7366 12.7    0.092    2.275    0.092    2.275
 calculate_vxc_atom                  63  8.0    0.015    0.092    2.203    2.206
 mp_max_i                           652  4.4    0.911    2.028    0.911    2.028
 pw_axpy                           1958 10.7    1.660    1.937    1.660    1.937
 pw_copy_from_array                1897 12.7    1.529    1.926    1.529    1.926
 xc_functional_eval                 430 10.9    0.001    0.002    1.265    1.904
 pbe_lda_eval                       430 11.9    1.264    1.902    1.264    1.902
 pw_zero                           1944 10.6    1.492    1.836    1.492    1.836
 cp_dbcsr_sm_fm_multiply            766  8.5    0.009    0.010    1.434    1.528
 calc_screening_functions             1 10.0    1.285    1.321    1.439    1.477
 pw_poisson_rebuild                 183 10.3    0.000    0.000    1.415    1.438
 ps_wavelet_create                    1 10.0    0.000    0.000    1.415    1.438
 RS_z_slice_distribution              1 11.0    0.224    0.254    1.415    1.438
 update_ks_atom                     183  8.7    0.023    0.067    1.079    1.279
 mp_bcast_dm                       1830  9.7    1.055    1.260    1.055    1.260
 integrate_four_center_getP         303 10.8    0.032    0.037    0.800    1.105
 fft_wrap_pw1pw2_30                 368 11.8    0.012    0.016    0.705    1.093
 transfer_rs2pw_10                  185 11.6    0.292    0.327    0.859    1.071
 transfer_pw2rs_10                  183 12.0    0.176    0.197    0.828    1.020
 dbcsr_complete_redistribute       2586 10.4    0.054    0.077    0.831    0.934
 dbcsr_multiply_generic            1069 10.3    0.024    0.034    0.896    0.919
 calculate_rho_atom_coeff           185  8.6    0.038    0.104    0.875    0.877
 rs_gather_matrices                 183 10.0    0.002    0.009    0.083    0.685
 prepare_dr1dr                      360 11.1    0.554    0.684    0.554    0.684
 grid_integrate_task_list           183 10.0    0.053    0.666    0.053    0.666
 cp_dbcsr_sm_fm_multiply_core       766  9.5    0.001    0.001    0.628    0.648
 mp_alltoall_i22                   3438 11.4    0.507    0.643    0.507    0.643
 copy_fm_to_dbcsr                  1733  9.5    0.004    0.005    0.514    0.642
 calculate_rho0_atom                368  9.6    0.566    0.623    0.566    0.623
 tddfpt_construct_ground_state_       1  6.0    0.000    0.000    0.549    0.556
 parallel_gemm_fm                  1162  8.2    0.001    0.001    0.453    0.553
 parallel_gemm_fm_cosma            1162  9.2    0.452    0.552    0.452    0.552
 copy_dbcsr_to_fm                   851  9.2    0.006    0.007    0.501    0.546
 offload_free_buffer                191 10.0    0.300    0.514    0.300    0.514
 integrate_four_center_dist_KS      303 10.8    0.032    0.039    0.457    0.461
 tddfpt_orthonormalize_psi1_psi       7  6.9    0.005    0.005    0.400    0.456
 qs_scf_new_mos                      63  5.0    0.001    0.001    0.414    0.435
 init_scf_run                         1  3.0    0.000    0.000    0.433    0.433
 scf_env_initial_rho_setup            1  4.0    0.000    0.000    0.429    0.430
 multiply_cannon                   1069 11.3    0.065    0.073    0.356    0.377
 cp_dbcsr_plus_fm_fm_t              183  8.3    0.001    0.002    0.361    0.375
 mp_rank_compare                   3737 14.0    0.304    0.329    0.304    0.329
 scale_and_distribute               366 11.3    0.213    0.318    0.213    0.318
 fft_wrap_pw1pw2_10                 368 11.8    0.003    0.004    0.229    0.303
 make_m2s                          2138 11.3    0.015    0.016    0.280    0.298
 powell_optimize                 187612 11.0    0.276    0.291    0.276    0.291
 multiply_cannon_loop              1069 12.3    0.045    0.048    0.223    0.259
 make_images                       2138 12.3    0.040    0.042    0.241    0.258
 mp_sum_l                          4245 10.2    0.226    0.254    0.226    0.254
 tddfpt_print_nto_analysis            1  6.0    0.002    0.002    0.248    0.254
 calc_pair_dist_radii                 1 10.0    0.120    0.123    0.242    0.246
 eigensolver_symm                    63  6.0    0.005    0.006    0.240    0.245
 cp_fm_trace_a1b1t1_aa             7470  8.0    0.013    0.015    0.204    0.233
 create_kernel_env                    1  6.0    0.000    0.000    0.203    0.223
 xc_prep_2nd_deriv                    1  7.0    0.000    0.000    0.203    0.223
 tddfpt_compute_residual_vects        5  7.0    0.000    0.000    0.211    0.214
 mp_isendrecv_dv                 123444 12.2    0.085    0.209    0.085    0.209
 pw_scale                           492  9.5    0.145    0.209    0.145    0.209
 mp_alltoall_z11v                   368 14.8    0.138    0.187    0.138    0.187
 cp_fm_diag_elpa                     91  7.3    0.000    0.000    0.176    0.180
 tddfpt_apply_energy_diff             6  8.0    0.000    0.000    0.178    0.179
 cp_fm_diag_elpa_base                91  8.3    0.162    0.165    0.168    0.168
 make_images_sizes                 2138 13.3    0.002    0.002    0.135    0.148
 mp_cart_sub                       1705 11.2    0.145    0.146    0.145    0.146
 mp_alltoall_i44                   2138 14.3    0.134    0.146    0.134    0.146
 dbcsr_desymmetrize_deep            852 10.2    0.008    0.010    0.125    0.143
 qs_init_subsys                       1  2.0    0.001    0.001    0.133    0.133
 create_qs_kind_set                   1  2.0    0.000    0.000    0.127    0.127
 read_qs_kind                         2  3.0    0.036    0.046    0.127    0.127
 qs_env_setup                         1  3.0    0.000    0.000    0.125    0.126
 qs_env_rebuild_pw_env                2  3.5    0.000    0.000    0.125    0.126
 pw_env_rebuild                       1  5.0    0.000    0.000    0.125    0.125
 yz_to_xz                           183 14.0    0.008    0.010    0.083    0.124
 scf_post_calculation_gpw             1  3.0    0.000    0.000    0.123    0.123
 write_available_results              1  4.0    0.000    0.000    0.123    0.123
 write_mo_free_results                1  5.0    0.003    0.004    0.123    0.123
 mp_cart_create                    1222 10.7    0.110    0.119    0.112    0.121
 rs_grid_create                     189 10.2    0.001    0.002    0.016    0.116
 pw_grid_setup                        4  6.0    0.000    0.000    0.115    0.115
 pw_grid_setup_internal               4  7.0    0.002    0.002    0.115    0.115
 offload_create_buffer              191 11.1    0.015    0.115    0.015    0.115
 xc_2nd_deriv_of_r                  240 10.0    0.001    0.017    0.004    0.108
 tddfpt_orthogonalize_psi1_psi0       7  6.9    0.000    0.000    0.052    0.102
 calculate_dm_sparse                 63  6.0    0.000    0.000    0.093    0.101
 multiply_cannon_metrocomm3       17104 13.3    0.023    0.025    0.057    0.100
 dbcsr_finalize                    5735 11.3    0.013    0.015    0.077    0.098
 parser_read_line                 14781  4.0    0.002    0.003    0.091    0.092
 cp_fm_geeig                         20  7.0    0.001    0.001    0.089    0.090
 xz_to_yz                           185 13.6    0.006    0.007    0.068    0.090
 parser_read_line_low                21  5.0    0.002    0.047    0.089    0.089
 broadcast_input_information         21  6.0    0.007    0.007    0.087    0.088
 mp_isend_dv                      68659 13.4    0.066    0.084    0.066    0.084
 pw_grid_sort                         4  8.0    0.055    0.056    0.076    0.082
 mp_alltoall_i11v                  8610 11.4    0.026    0.075    0.026    0.075
 hirshfeld_integration                1  6.0    0.000    0.002    0.072    0.072
 mp_bcast_i_src                      84  7.0    0.064    0.072    0.064    0.072
 integrate_four_center_load         303 10.8    0.000    0.001    0.050    0.071
 hfx_load_balance                     1 11.0    0.000    0.005    0.049    0.071
 dbcsr_merge_all                   4460 12.4    0.034    0.055    0.049    0.071
 mp_irecv_dv                      67893 13.4    0.043    0.071    0.043    0.071
 qs_energies_init_hamiltonians        1  3.0    0.000    0.000    0.064    0.064
 build_core_hamiltonian_matrix        1  4.0    0.000    0.000    0.061    0.061
 overlap_condnum                      1  5.0    0.000    0.000    0.059    0.060
 write_mo_set_to_restart             63  5.0    0.001    0.058    0.030    0.060
 hfx_load_balance_range               1 12.0    0.000    0.000    0.037    0.058
 dbcsr_create_new                 18814 11.6    0.037    0.041    0.051    0.055
 mp_bcast_b_src                     154  7.9    0.049    0.052    0.049    0.052
 multiply_cannon_metrocomm4       16035 13.3    0.024    0.026    0.042    0.051
 external_control                    63  5.0    0.000    0.047    0.048    0.048
 arnoldi_conjugate_gradient           5  6.0    0.001    0.001    0.046    0.046
 multiply_cannon_metrocomm2       14966 13.3    0.023    0.026    0.040    0.046
 rs_scatter_matrices                185  9.6    0.001    0.003    0.009    0.045
 mp_allgather_i34                  1069 12.3    0.039    0.045    0.039    0.045
 cp_fm_syevd                         20  7.0    0.000    0.000    0.041    0.044
 cube_transpose_2                   185 13.6    0.003    0.003    0.021    0.044
 multiply_cannon_metrocomm1       17104 13.3    0.012    0.013    0.026    0.043
 cp_fm_write_unformatted             24  7.0    0.042    0.042    0.042    0.042
 make_images_data                  2138 13.3    0.011    0.015    0.027    0.042
 calculate_hirshfeld_normalizat       1  6.0    0.000    0.002    0.037    0.041
 xc_pw_smooth                        63 10.0    0.000    0.000    0.029    0.040
 -------------------------------------------------------------------------------

 The number of warnings for this run is : 1
 
 -------------------------------------------------------------------------------
  **** **** ******  **  PROGRAM ENDED AT                 2025-04-21 18:37:47.576
 ***** ** ***  *** **   PROGRAM RAN ON                     n2cn0391.ab2021.local
 **    ****   ******    PROGRAM RAN BY                                  metdyn02
 ***** **    ** ** **   PROGRAM PROCESS ID                               2331236
  **** **  *******  **  PROGRAM STOPPED IN /scratch/hpc-prf-metdyn/metdyn02_Remi
                                           /10_MOL/05_MOL/W4-11+ALK/sih4/DZVP/TD
                                           DFT/RILIM
