 DBCSR| CPU Multiplication driver                                           BLAS (U)
 DBCSR| Multrec recursion limit                                              512 (U)
 DBCSR| Multiplication stack size                                           1000 (D)
 DBCSR| Maximum elements for images                                    UNLIMITED (U)
 DBCSR| Multiplicative factor virtual images                                   1 (U)
 DBCSR| Use multiplication densification                                       T (D)
 DBCSR| Multiplication size stacks                                             3 (U)
 DBCSR| Use memory pool for CPU allocation                                     F (U)
 DBCSR| Number of 3D layers                                               SINGLE (U)
 DBCSR| Use MPI memory allocation                                              F (U)
 DBCSR| Use RMA algorithm                                                      F (U)
 DBCSR| Use Communication thread                                               T (U)
 DBCSR| Communication thread load                                             75 (D)
 DBCSR| MPI: My process id                                                     0
 DBCSR| MPI: Number of processes                                             216
 DBCSR| OMP: Current number of threads                                         4
 DBCSR| OMP: Max number of threads                                             4
 DBCSR| Split modifier for TAS multiplication algorithm                  1.0E+00 (U)


  **** **** ******  **  PROGRAM STARTED AT               2025-04-02 10:10:35.069
 ***** ** ***  *** **   PROGRAM STARTED ON                          i04r04c05s05
 **    ****   ******    PROGRAM STARTED BY                               di38fab
 ***** **    ** ** **   PROGRAM PROCESS ID                               3075091
  **** **  *******  **  PROGRAM STARTED IN /hppfs/scratch/04/di38fab/07_MOL_non_
                                           aug/05_MOL_non_aug/05_MOL/aUKBqsEOTmq
                                           69kFe5R_nOg/5k_set_final_qzvp/TIRNAK/
                                           SZV/TDDFT

 CP2K| version string:                 CP2K version 2025.1 (Development Version)
 CP2K| source code revision number:                                  git:d2e611a
 CP2K| cp2kflags: omp libint fftw3 libxc parallel scalapack max_contr=4         
 CP2K| is freely available from                            https://www.cp2k.org/
 CP2K| Program compiled at                       Thu 06 Mar 2025 05:09:20 PM CET
 CP2K| Program compiled on                                               login02
 CP2K| Program compiled for                                        Supermuc-foss
 CP2K| Data directory path                  /hppfs/work/pn36zo/di38fab/cp2k/data
 CP2K| Input file name                                                    GW.inp

 GLOBAL| Force Environment number                                              1
 GLOBAL| Basis set file name            /hppfs/scratch/04/di38fab/04_TMD/BASIS_A
 GLOBAL| Potential file name            /hppfs/work/pn36zo/di38fab/cp2k/data/ALL
 GLOBAL| MM Potential file name                                     MM_POTENTIAL
 GLOBAL| Coordinate file name                                      __STD_INPUT__
 GLOBAL| Method name                                                        CP2K
 GLOBAL| Project name                                                       MoS2
 GLOBAL| Run type                                                         ENERGY
 GLOBAL| FFT library                                                       FFTW3
 GLOBAL| Diagonalization library                                       ScaLAPACK
 GLOBAL| DGEMM library                                                      BLAS
 GLOBAL| Orthonormality check for eigenvectors                          DISABLED
 GLOBAL| Matrix multiplication library                                 ScaLAPACK
 GLOBAL| All-to-all communication in single precision                          F
 GLOBAL| FFTs using library dependent lengths                                  F
 GLOBAL| Grid backend                                                       AUTO
 GLOBAL| Global print level                                               MEDIUM
 GLOBAL| MPI I/O enabled                                                       T
 GLOBAL| Total number of message passing processes                           216
 GLOBAL| Number of threads for this process                                    4
 GLOBAL| This output is from process                                           0
 GLOBAL| OpenMP stack size per thread (OMP_STACKSIZE)                    default
 GLOBAL| CPU model name             Intel(R) Xeon(R) Platinum 8174 CPU @ 3.10GHz

 MEMORY| system memory details [Kb]
 MEMORY|                        rank 0           min           max       average
 MEMORY| MemTotal             98436664      98436640      98436736      98436673
 MEMORY| MemFree              83194448      83194448      84855592      83790711
 MEMORY| Buffers                     0             0             0             0
 MEMORY| Cached                2817212       2388268       2817212       2466454
 MEMORY| Slab                  1264248       1047856       1277624       1240130
 MEMORY| SReclaimable           286348        239744        291244        279094
 MEMORY| MemLikelyFree        86298008      86202424      87512984      86536260


 *** Fundamental physical constants (SI units) ***

 *** Literature: B. J. Mohr and B. N. Taylor,
 ***             CODATA recommended values of the fundamental physical
 ***             constants: 2006, Web Version 5.1
 ***             http://physics.nist.gov/constants

 Speed of light in vacuum [m/s]                             2.99792458000000E+08
 Magnetic constant or permeability of vacuum [N/A**2]       1.25663706143592E-06
 Electric constant or permittivity of vacuum [F/m]          8.85418781762039E-12
 Planck constant (h) [J*s]                                  6.62606896000000E-34
 Planck constant (h-bar) [J*s]                              1.05457162825177E-34
 Elementary charge [C]                                      1.60217648700000E-19
 Electron mass [kg]                                         9.10938215000000E-31
 Electron g factor [ ]                                     -2.00231930436220E+00
 Proton mass [kg]                                           1.67262163700000E-27
 Fine-structure constant                                    7.29735253760000E-03
 Rydberg constant [1/m]                                     1.09737315685270E+07
 Avogadro constant [1/mol]                                  6.02214179000000E+23
 Boltzmann constant [J/K]                                   1.38065040000000E-23
 Atomic mass unit [kg]                                      1.66053878200000E-27
 Bohr radius [m]                                            5.29177208590000E-11

 *** Conversion factors ***

 [u] -> [a.u.]                                              1.82288848426455E+03
 [Angstrom] -> [Bohr] = [a.u.]                              1.88972613288564E+00
 [a.u.] = [Bohr] -> [Angstrom]                              5.29177208590000E-01
 [a.u.] -> [s]                                              2.41888432650478E-17
 [a.u.] -> [fs]                                             2.41888432650478E-02
 [a.u.] -> [J]                                              4.35974393937059E-18
 [a.u.] -> [N]                                              8.23872205491840E-08
 [a.u.] -> [K]                                              3.15774647902944E+05
 [a.u.] -> [kJ/mol]                                         2.62549961709828E+03
 [a.u.] -> [kcal/mol]                                       6.27509468713739E+02
 [a.u.] -> [Pa]                                             2.94210107994716E+13
 [a.u.] -> [bar]                                            2.94210107994716E+08
 [a.u.] -> [atm]                                            2.90362800883016E+08
 [a.u.] -> [eV]                                             2.72113838565563E+01
 [a.u.] -> [Hz]                                             6.57968392072181E+15
 [a.u.] -> [1/cm] (wave numbers)                            2.19474631370540E+05
 [a.u./Bohr**2] -> [1/cm]                                   5.14048714338585E+03
 

 CELL_TOP| Volume [angstrom^3]:                                     27000.000000
 CELL_TOP| Vector a [angstrom    30.000     0.000     0.000   |a| =    30.000000
 CELL_TOP| Vector b [angstrom     0.000    30.000     0.000   |b| =    30.000000
 CELL_TOP| Vector c [angstrom     0.000     0.000    30.000   |c| =    30.000000
 CELL_TOP| Angle (b,c), alpha [degree]:                                90.000000
 CELL_TOP| Angle (a,c), beta  [degree]:                                90.000000
 CELL_TOP| Angle (a,b), gamma [degree]:                                90.000000
 CELL_TOP| Numerically orthorhombic:                                         YES
 CELL_TOP| Periodicity                                                      NONE

 GENERATE|  Preliminary Number of Bonds generated:                             0
 GENERATE|  Achieved consistency in connectivity generation.

 CELL| Volume [angstrom^3]:                                         27000.000000
 CELL| Vector a [angstrom]:      30.000     0.000     0.000   |a| =    30.000000
 CELL| Vector b [angstrom]:       0.000    30.000     0.000   |b| =    30.000000
 CELL| Vector c [angstrom]:       0.000     0.000    30.000   |c| =    30.000000
 CELL| Angle (b,c), alpha [degree]:                                    90.000000
 CELL| Angle (a,c), beta  [degree]:                                    90.000000
 CELL| Angle (a,b), gamma [degree]:                                    90.000000
 CELL| Numerically orthorhombic:                                             YES
 CELL| Periodicity                                                          NONE

 CELL_REF| Volume [angstrom^3]:                                     27000.000000
 CELL_REF| Vector a [angstrom    30.000     0.000     0.000   |a| =    30.000000
 CELL_REF| Vector b [angstrom     0.000    30.000     0.000   |b| =    30.000000
 CELL_REF| Vector c [angstrom     0.000     0.000    30.000   |c| =    30.000000
 CELL_REF| Angle (b,c), alpha [degree]:                                90.000000
 CELL_REF| Angle (a,c), beta  [degree]:                                90.000000
 CELL_REF| Angle (a,b), gamma [degree]:                                90.000000
 CELL_REF| Numerically orthorhombic:                                         YES
 CELL_REF| Periodicity                                                      NONE

 *******************************************************************************
 *******************************************************************************
 **                                                                           **
 **     #####                         ##              ##                      **
 **    ##   ##            ##          ##              ##                      **
 **   ##     ##                       ##            ######                    **
 **   ##     ##  ##   ##  ##   #####  ##  ##   ####   ##    #####    #####    **
 **   ##     ##  ##   ##  ##  ##      ## ##   ##      ##   ##   ##  ##   ##   **
 **   ##  ## ##  ##   ##  ##  ##      ####     ###    ##   ######   ######    **
 **    ##  ###   ##   ##  ##  ##      ## ##      ##   ##   ##       ##        **
 **     #######   #####   ##   #####  ##  ##  ####    ##    #####   ##        **
 **           ##                                                    ##        **
 **                                                                           **
 **                                                ... make the atoms dance   **
 **                                                                           **
 **            Copyright (C) by CP2K developers group (2000-2025)             **
 **                      J. Chem. Phys. 152, 194103 (2020)                    **
 **                                                                           **
 *******************************************************************************

 DFT| Spin restricted Kohn-Sham (RKS) calculation                            RKS
 DFT| Multiplicity                                                             1
 DFT| Number of spin states                                                    1
 DFT| Charge                                                                   0
 DFT| Self-interaction correction (SIC)                                       NO
 DFT| Cutoffs: density                                              1.000000E-10
 DFT|          gradient                                             1.000000E-10
 DFT|          tau                                                  1.000000E-10
 DFT|          cutoff_smoothing_range                               0.000000E+00
 DFT| XC density smoothing                                                  NONE
 DFT| XC derivatives                                                          PW

 FUNCTIONAL| PBE:
 FUNCTIONAL| J.P.Perdew, K.Burke, M.Ernzerhof, Phys. Rev. Letter, vol. 77, n 18,
 FUNCTIONAL|  pp. 3865-3868, (1996)sx=0.750sc=1.000{spin unpolarized}           


 QS| Method:                                                                GAPW
 QS| Density plane wave grid type                        NON-SPHERICAL FULLSPACE
 QS| Number of grid levels:                                                    4
 QS| Density cutoff [a.u.]:                                                250.0
 QS| Multi grid cutoff [a.u.]: 1) grid level                               250.0
 QS|                           2) grid level                                83.3
 QS|                           3) grid level                                27.8
 QS|                           4) grid level                                 9.3
 QS| Grid level progression factor:                                          3.0
 QS| Relative density cutoff [a.u.]:                                        50.0
 QS| Interaction thresholds: eps_pgf_orb:                                1.0E-12
 QS|                         eps_filter_matrix:                          0.0E+00
 QS|                         eps_core_charge:                            1.0E-14
 QS|                         eps_rho_gspace:                             1.0E-12
 QS|                         eps_rho_rspace:                             1.0E-12
 QS|                         eps_gvg_rspace:                             1.0E-06
 QS|                         eps_ppl:                                    1.0E-02
 QS|                         eps_ppnl:                                   1.0E-08
 QS| GAPW|      One center basis from orbital basis primitives
 QS| GAPW|                   eps_fit:                                    1.0E-04
 QS| GAPW|                   eps_iso:                                    1.0E-12
 QS| GAPW|                   eps_svd:                                    1.0E-08
 QS| GAPW|                   eps_cpc:                                    1.0E-12
 QS| GAPW|   atom-r-grid: quadrature:                                     GC_LOG
 QS| GAPW|      atom-s-grid:  max l :                                          4
 QS| GAPW|      max_l_rho0 :                                                   2


 ATOMIC KIND INFORMATION

  1. Atomic kind: C                                     Number of atoms:       6

     Orbital Basis Set                                         SVP-MOLOPT-GGA-ae

       Number of orbital shell sets:                                           2
       Number of orbital shells:                                               6
       Number of primitive Cartesian functions:                               11
       Number of Cartesian basis functions:                                   15
       Number of spherical basis functions:                                   14
       Norm type:                                                              2

       Normalised Cartesian orbitals:

                        Set   Shell   Orbital            Exponent    Coefficient

                          1       1    2px               4.145546       1.425967
                                                         0.937529       0.673511
                                                         0.300899       0.144116
                                                         0.096935       0.005344
                          1       1    2py               4.145546       1.425967
                                                         0.937529       0.673511
                                                         0.300899       0.144116
                                                         0.096935       0.005344
                          1       1    2pz               4.145546       1.425967
                                                         0.937529       0.673511
                                                         0.300899       0.144116
                                                         0.096935       0.005344

                          1       2    3px               4.145546      -0.833488
                                                         0.937529      -0.414500
                                                         0.300899       0.082631
                                                         0.096935       0.066903
                          1       2    3py               4.145546      -0.833488
                                                         0.937529      -0.414500
                                                         0.300899       0.082631
                                                         0.096935       0.066903
                          1       2    3pz               4.145546      -0.833488
                                                         0.937529      -0.414500
                                                         0.300899       0.082631
                                                         0.096935       0.066903

                          1       3    3dx2              4.145546       0.718979
                                                         0.937529       0.830801
                                                         0.300899       0.105504
                                                         0.096935       0.001258
                          1       3    3dxy              4.145546       1.245309
                                                         0.937529       1.438990
                                                         0.300899       0.182739
                                                         0.096935       0.002179
                          1       3    3dxz              4.145546       1.245309
                                                         0.937529       1.438990
                                                         0.300899       0.182739
                                                         0.096935       0.002179
                          1       3    3dy2              4.145546       0.718979
                                                         0.937529       0.830801
                                                         0.300899       0.105504
                                                         0.096935       0.001258
                          1       3    3dyz              4.145546       1.245309
                                                         0.937529       1.438990
                                                         0.300899       0.182739
                                                         0.096935       0.002179
                          1       3    3dz2              4.145546       0.718979
                                                         0.937529       0.830801
                                                         0.300899       0.105504
                                                         0.096935       0.001258

                          2       1    1s             1238.394264      -0.490536
                                                       186.270922       1.801845
                                                        40.805234       2.242010
                                                        10.501907       2.110671
                                                         3.176528       0.666384
                                                         0.523772      -0.029268
                                                         0.161278       0.024253

                          2       2    2s             1238.394264       0.147138
                                                       186.270922      -0.108171
                                                        40.805234       0.350132
                                                        10.501907      -0.033488
                                                         3.176528      -0.079506
                                                         0.523772       0.279468
                                                         0.161278       0.080328

                          2       3    3s             1238.394264     -12.484315
                                                       186.270922       1.755878
                                                        40.805234      -2.174132
                                                        10.501907      -0.974990
                                                         3.176528      -0.308205
                                                         0.523772      -0.382710
                                                         0.161278       0.225687

     RI Auxiliary Basis Set                                    aug-cc-pV5Z-OPTRI

       Number of orbital shell sets:                                          22
       Number of orbital shells:                                              22
       Number of primitive Cartesian functions:                               22
       Number of Cartesian basis functions:                                  188
       Number of spherical basis functions:                                  122
       Norm type:                                                              2

       Normalised Cartesian orbitals:

                        Set   Shell   Orbital            Exponent    Coefficient

                          1       1    1gx4              0.114786       0.002892
                          1       1    1gx3y             0.114786       0.007650
                          1       1    1gx3z             0.114786       0.007650
                          1       1    1gx2y2            0.114786       0.009877
                          1       1    1gx2yz            0.114786       0.017107
                          1       1    1gx2z2            0.114786       0.009877
                          1       1    1gxy3             0.114786       0.007650
                          1       1    1gxy2z            0.114786       0.017107
                          1       1    1gxyz2            0.114786       0.017107
                          1       1    1gxz3             0.114786       0.007650
                          1       1    1gy4              0.114786       0.002892
                          1       1    1gy3z             0.114786       0.007650
                          1       1    1gy2z2            0.114786       0.009877
                          1       1    1gyz3             0.114786       0.007650
                          1       1    1gz4              0.114786       0.002892

                          2       1    1px               0.121920       0.102691
                          2       1    1py               0.121920       0.102691
                          2       1    1pz               0.121920       0.102691

                          3       1    1s                0.152658       0.174060

                          4       1    1px               0.299745       0.316140
                          4       1    1py               0.299745       0.316140
                          4       1    1pz               0.299745       0.316140

                          5       1    1s                0.384933       0.348296

                          6       1    1hx5              0.391317       0.035161
                          6       1    1hx4y             0.391317       0.105483
                          6       1    1hx4z             0.391317       0.105483
                          6       1    1hx3y2            0.391317       0.161128
                          6       1    1hx3yz            0.391317       0.279083
                          6       1    1hx3z2            0.391317       0.161128
                          6       1    1hx2y3            0.391317       0.161128
                          6       1    1hx2y2z           0.391317       0.360294
                          6       1    1hx2yz2           0.391317       0.360294
                          6       1    1hx2z3            0.391317       0.161128
                          6       1    1hxy4             0.391317       0.105483
                          6       1    1hxy3z            0.391317       0.279083
                          6       1    1hxy2z2           0.391317       0.360294
                          6       1    1hxyz3            0.391317       0.279083
                          6       1    1hxz4             0.391317       0.105483
                          6       1    1hy5              0.391317       0.035161
                          6       1    1hy4z             0.391317       0.105483
                          6       1    1hy3z2            0.391317       0.161128
                          6       1    1hy2z3            0.391317       0.161128
                          6       1    1hyz4             0.391317       0.105483
                          6       1    1hz5              0.391317       0.035161

                          7       1    1fx3              0.540840       0.369283
                          7       1    1fx2y             0.540840       0.825742
                          7       1    1fx2z             0.540840       0.825742
                          7       1    1fxy2             0.540840       0.825742
                          7       1    1fxyz             0.540840       1.430227
                          7       1    1fxz2             0.540840       0.825742
                          7       1    1fy3              0.540840       0.369283
                          7       1    1fy2z             0.540840       0.825742
                          7       1    1fyz2             0.540840       0.825742
                          7       1    1fz3              0.540840       0.369283

                          8       1    1px               0.678328       0.877485
                          8       1    1py               0.678328       0.877485
                          8       1    1pz               0.678328       0.877485

                          9       1    1dx2              0.754246       1.004748
                          9       1    1dxy              0.754246       1.740275
                          9       1    1dxz              0.754246       1.740275
                          9       1    1dy2              0.754246       1.004748
                          9       1    1dyz              0.754246       1.740275
                          9       1    1dz2              0.754246       1.004748

                         10       1    1gx4              1.012792       1.152434
                         10       1    1gx3y             1.012792       3.049054
                         10       1    1gx3z             1.012792       3.049054
                         10       1    1gx2y2            1.012792       3.936312
                         10       1    1gx2yz            1.012792       6.817893
                         10       1    1gx2z2            1.012792       3.936312
                         10       1    1gxy3             1.012792       3.049054
                         10       1    1gxy2z            1.012792       6.817893
                         10       1    1gxyz2            1.012792       6.817893
                         10       1    1gxz3             1.012792       3.049054
                         10       1    1gy4              1.012792       1.152434
                         10       1    1gy3z             1.012792       3.049054
                         10       1    1gy2z2            1.012792       3.936312
                         10       1    1gyz3             1.012792       3.049054
                         10       1    1gz4              1.012792       1.152434

                         11       1    1s                1.103587       0.767388

                         12       1    1ix6              1.245967       1.020534
                         12       1    1ix5y             1.245967       3.384727
                         12       1    1ix5z             1.245967       3.384727
                         12       1    1ix4y2            1.245967       5.862520
                         12       1    1ix4yz            1.245967      10.154182
                         12       1    1ix4z2            1.245967       5.862520
                         12       1    1ix3y3            1.245967       6.936627
                         12       1    1ix3y2z           1.245967      15.510769
                         12       1    1ix3yz2           1.245967      15.510769
                         12       1    1ix3z3            1.245967       6.936627
                         12       1    1ix2y4            1.245967       5.862520
                         12       1    1ix2y3z           1.245967      15.510769
                         12       1    1ix2y2z2          1.245967      20.024317
                         12       1    1ix2yz3           1.245967      15.510769
                         12       1    1ix2z4            1.245967       5.862520
                         12       1    1ixy5             1.245967       3.384727
                         12       1    1ixy4z            1.245967      10.154182
                         12       1    1ixy3z2           1.245967      15.510769
                         12       1    1ixy2z3           1.245967      15.510769
                         12       1    1ixyz4            1.245967      10.154182
                         12       1    1ixz5             1.245967       3.384727
                         12       1    1iy6              1.245967       1.020534
                         12       1    1iy5z             1.245967       3.384727
                         12       1    1iy4z2            1.245967       5.862520
                         12       1    1iy3z3            1.245967       6.936627
                         12       1    1iy2z4            1.245967       5.862520
                         12       1    1iyz5             1.245967       3.384727
                         12       1    1iz6              1.245967       1.020534

                         13       1    1fx3              1.255807       2.457712
                         13       1    1fx2y             1.255807       5.495611
                         13       1    1fx2z             1.255807       5.495611
                         13       1    1fxy2             1.255807       5.495611
                         13       1    1fxyz             1.255807       9.518677
                         13       1    1fxz2             1.255807       5.495611
                         13       1    1fy3              1.255807       2.457712
                         13       1    1fy2z             1.255807       5.495611
                         13       1    1fyz2             1.255807       5.495611
                         13       1    1fz3              1.255807       2.457712

                         14       1    1px               1.626163       2.617551
                         14       1    1py               1.626163       2.617551
                         14       1    1pz               1.626163       2.617551

                         15       1    1dx2              1.990505       5.490289
                         15       1    1dxy              1.990505       9.509459
                         15       1    1dxz              1.990505       9.509459
                         15       1    1dy2              1.990505       5.490289
                         15       1    1dyz              1.990505       9.509459
                         15       1    1dz2              1.990505       5.490289

                         16       1    1hx5              2.339630      11.750937
                         16       1    1hx4y             2.339630      35.252812
                         16       1    1hx4z             2.339630      35.252812
                         16       1    1hx3y2            2.339630      53.849559
                         16       1    1hx3yz            2.339630      93.270173
                         16       1    1hx3z2            2.339630      53.849559
                         16       1    1hx2y3            2.339630      53.849559
                         16       1    1hx2y2z           2.339630     120.411275
                         16       1    1hx2yz2           2.339630     120.411275
                         16       1    1hx2z3            2.339630      53.849559
                         16       1    1hxy4             2.339630      35.252812
                         16       1    1hxy3z            2.339630      93.270173
                         16       1    1hxy2z2           2.339630     120.411275
                         16       1    1hxyz3            2.339630      93.270173
                         16       1    1hxz4             2.339630      35.252812
                         16       1    1hy5              2.339630      11.750937
                         16       1    1hy4z             2.339630      35.252812
                         16       1    1hy3z2            2.339630      53.849559
                         16       1    1hy2z3            2.339630      53.849559
                         16       1    1hyz4             2.339630      35.252812
                         16       1    1hz5              2.339630      11.750937

                         17       1    1gx4              3.524920      35.570986
                         17       1    1gx3y             3.524920      94.111983
                         17       1    1gx3z             3.524920      94.111983
                         17       1    1gx2y2            3.524920     121.498047
                         17       1    1gx2yz            3.524920     210.440791
                         17       1    1gx2z2            3.524920     121.498047
                         17       1    1gxy3             3.524920      94.111983
                         17       1    1gxy2z            3.524920     210.440791
                         17       1    1gxyz2            3.524920     210.440791
                         17       1    1gxz3             3.524920      94.111983
                         17       1    1gy4              3.524920      35.570986
                         17       1    1gy3z             3.524920      94.111983
                         17       1    1gy2z2            3.524920     121.498047
                         17       1    1gyz3             3.524920      94.111983
                         17       1    1gz4              3.524920      35.570986

                         18       1    1px               4.160664       8.470195
                         18       1    1py               4.160664       8.470195
                         18       1    1pz               4.160664       8.470195

                         19       1    1s                4.500495       2.202193

                         20       1    1fx3              4.904034      52.686550
                         20       1    1fx2y             4.904034     117.810708
                         20       1    1fx2z             4.904034     117.810708
                         20       1    1fxy2             4.904034     117.810708
                         20       1    1fxyz             4.904034     204.054131
                         20       1    1fxz2             4.904034     117.810708
                         20       1    1fy3              4.904034      52.686550
                         20       1    1fy2z             4.904034     117.810708
                         20       1    1fyz2             4.904034     117.810708
                         20       1    1fz3              4.904034      52.686550

                         21       1    1dx2              5.244543      29.915609
                         21       1    1dxy              5.244543      51.815354
                         21       1    1dxz              5.244543      51.815354
                         21       1    1dy2              5.244543      29.915609
                         21       1    1dyz              5.244543      51.815354
                         21       1    1dz2              5.244543      29.915609

                         22       1    1dx2             10.138089      94.805303
                         22       1    1dxy             10.138089     164.207602
                         22       1    1dxz             10.138089     164.207602
                         22       1    1dy2             10.138089      94.805303
                         22       1    1dyz             10.138089     164.207602
                         22       1    1dz2             10.138089      94.805303

       Atomic covalent radius [Angstrom]:                                  0.770

       Atomic van der Waals radius [Angstrom]:                             1.700

     The atoms of this atomic kind are PAW atoms (GAPW):
       Hard Gaussian function radius:                                      1.512
       Rho0 radius:                                                        1.512
       Maximum GTO radius used for PAW projector construction:            24.566

     GAPW Soft Basis Set                                  SVP-MOLOPT-GGA-ae_soft

       Number of orbital shell sets:                                           2
       Number of orbital shells:                                               6
       Number of primitive Cartesian functions:                                7
       Number of Cartesian basis functions:                                   15
       Number of spherical basis functions:                                   14
       Norm type:                                                              2

       Normalised Cartesian orbitals:

                        Set   Shell   Orbital            Exponent    Coefficient

                          1       1    2px               4.145546       1.425967
                                                         0.937529       0.673511
                                                         0.300899       0.144116
                                                         0.096935       0.005344
                          1       1    2py               4.145546       1.425967
                                                         0.937529       0.673511
                                                         0.300899       0.144116
                                                         0.096935       0.005344
                          1       1    2pz               4.145546       1.425967
                                                         0.937529       0.673511
                                                         0.300899       0.144116
                                                         0.096935       0.005344

                          1       2    3px               4.145546      -0.833488
                                                         0.937529      -0.414500
                                                         0.300899       0.082631
                                                         0.096935       0.066903
                          1       2    3py               4.145546      -0.833488
                                                         0.937529      -0.414500
                                                         0.300899       0.082631
                                                         0.096935       0.066903
                          1       2    3pz               4.145546      -0.833488
                                                         0.937529      -0.414500
                                                         0.300899       0.082631
                                                         0.096935       0.066903

                          1       3    3dx2              4.145546       0.718979
                                                         0.937529       0.830801
                                                         0.300899       0.105504
                                                         0.096935       0.001258
                          1       3    3dxy              4.145546       1.245309
                                                         0.937529       1.438990
                                                         0.300899       0.182739
                                                         0.096935       0.002179
                          1       3    3dxz              4.145546       1.245309
                                                         0.937529       1.438990
                                                         0.300899       0.182739
                                                         0.096935       0.002179
                          1       3    3dy2              4.145546       0.718979
                                                         0.937529       0.830801
                                                         0.300899       0.105504
                                                         0.096935       0.001258
                          1       3    3dyz              4.145546       1.245309
                                                         0.937529       1.438990
                                                         0.300899       0.182739
                                                         0.096935       0.002179
                          1       3    3dz2              4.145546       0.718979
                                                         0.937529       0.830801
                                                         0.300899       0.105504
                                                         0.096935       0.001258

                          2       1    1s                3.176528       0.666384
                                                         0.523772      -0.029268
                                                         0.161278       0.024253

                          2       2    2s                3.176528      -0.079506
                                                         0.523772       0.279468
                                                         0.161278       0.080328

                          2       3    3s                3.176528      -0.308205
                                                         0.523772      -0.382710
                                                         0.161278       0.225687

     AE Potential information for                                            ALL

       Description:                                       All-electron potential
                                          Krack, Parrinello, PCCP 2, 2105 (2000)

       Gaussian exponent of the core charge distribution:               4.109048
       Electronic configuration (s p d ...):                           4   2   0

  2. Atomic kind: N                                     Number of atoms:       4

     Orbital Basis Set                                         SVP-MOLOPT-GGA-ae

       Number of orbital shell sets:                                           2
       Number of orbital shells:                                               6
       Number of primitive Cartesian functions:                               11
       Number of Cartesian basis functions:                                   15
       Number of spherical basis functions:                                   14
       Norm type:                                                              2

       Normalised Cartesian orbitals:

                        Set   Shell   Orbital            Exponent    Coefficient

                          1       1    2px              12.268174      -2.349358
                                                         2.325354      -1.380142
                                                         0.634073      -0.492962
                                                         0.166384      -0.031930
                          1       1    2py              12.268174      -2.349358
                                                         2.325354      -1.380142
                                                         0.634073      -0.492962
                                                         0.166384      -0.031930
                          1       1    2pz              12.268174      -2.349358
                                                         2.325354      -1.380142
                                                         0.634073      -0.492962
                                                         0.166384      -0.031930

                          1       2    3px              12.268174      -0.998521
                                                         2.325354      -0.809234
                                                         0.634073      -0.220766
                                                         0.166384       0.169694
                          1       2    3py              12.268174      -0.998521
                                                         2.325354      -0.809234
                                                         0.634073      -0.220766
                                                         0.166384       0.169694
                          1       2    3pz              12.268174      -0.998521
                                                         2.325354      -0.809234
                                                         0.634073      -0.220766
                                                         0.166384       0.169694

                          1       3    3dx2             12.268174      -0.426175
                                                         2.325354       1.255926
                                                         0.634073       0.555487
                                                         0.166384       0.019402
                          1       3    3dxy             12.268174      -0.738157
                                                         2.325354       2.175327
                                                         0.634073       0.962132
                                                         0.166384       0.033606
                          1       3    3dxz             12.268174      -0.738157
                                                         2.325354       2.175327
                                                         0.634073       0.962132
                                                         0.166384       0.033606
                          1       3    3dy2             12.268174      -0.426175
                                                         2.325354       1.255926
                                                         0.634073       0.555487
                                                         0.166384       0.019402
                          1       3    3dyz             12.268174      -0.738157
                                                         2.325354       2.175327
                                                         0.634073       0.962132
                                                         0.166384       0.033606
                          1       3    3dz2             12.268174      -0.426175
                                                         2.325354       1.255926
                                                         0.634073       0.555487
                                                         0.166384       0.019402

                          2       1    1s             1713.054433      -1.166486
                                                       257.997554      -1.897300
                                                        57.692026      -2.958222
                                                        14.651380      -2.749170
                                                         4.403487      -0.858326
                                                         0.666629       0.012902
                                                         0.191012      -0.002582

                          2       2    2s             1713.054433       0.520658
                                                       257.997554      -0.458166
                                                        57.692026       0.772862
                                                        14.651380       0.000424
                                                         4.403487       0.009155
                                                         0.666629       0.351708
                                                         0.191012       0.079194

                          2       3    3s             1713.054433      -0.270364
                                                       257.997554       0.741400
                                                        57.692026      -1.262420
                                                        14.651380      -0.095292
                                                         4.403487      -0.072962
                                                         0.666629      -0.436823
                                                         0.191012       0.300064

     RI Auxiliary Basis Set                                    aug-cc-pV5Z-OPTRI

       Number of orbital shell sets:                                          22
       Number of orbital shells:                                              22
       Number of primitive Cartesian functions:                               22
       Number of Cartesian basis functions:                                  188
       Number of spherical basis functions:                                  122
       Norm type:                                                              2

       Normalised Cartesian orbitals:

                        Set   Shell   Orbital            Exponent    Coefficient

                          1       1    1gx4              0.134828       0.004501
                          1       1    1gx3y             0.134828       0.011909
                          1       1    1gx3z             0.134828       0.011909
                          1       1    1gx2y2            0.134828       0.015375
                          1       1    1gx2yz            0.134828       0.026630
                          1       1    1gx2z2            0.134828       0.015375
                          1       1    1gxy3             0.134828       0.011909
                          1       1    1gxy2z            0.134828       0.026630
                          1       1    1gxyz2            0.134828       0.026630
                          1       1    1gxz3             0.134828       0.011909
                          1       1    1gy4              0.134828       0.004501
                          1       1    1gy3z             0.134828       0.011909
                          1       1    1gy2z2            0.134828       0.015375
                          1       1    1gyz3             0.134828       0.011909
                          1       1    1gz4              0.134828       0.004501

                          2       1    1px               0.159639       0.143835
                          2       1    1py               0.159639       0.143835
                          2       1    1pz               0.159639       0.143835

                          3       1    1s                0.209162       0.220431

                          4       1    1px               0.436875       0.506275
                          4       1    1py               0.436875       0.506275
                          4       1    1pz               0.436875       0.506275

                          5       1    1hx5              0.527568       0.092843
                          5       1    1hx4y             0.527568       0.278529
                          5       1    1hx4z             0.527568       0.278529
                          5       1    1hx3y2            0.527568       0.425460
                          5       1    1hx3yz            0.527568       0.736918
                          5       1    1hx3z2            0.527568       0.425460
                          5       1    1hx2y3            0.527568       0.425460
                          5       1    1hx2y2z           0.527568       0.951358
                          5       1    1hx2yz2           0.527568       0.951358
                          5       1    1hx2z3            0.527568       0.425460
                          5       1    1hxy4             0.527568       0.278529
                          5       1    1hxy3z            0.527568       0.736918
                          5       1    1hxy2z2           0.527568       0.951358
                          5       1    1hxyz3            0.527568       0.736918
                          5       1    1hxz4             0.527568       0.278529
                          5       1    1hy5              0.527568       0.092843
                          5       1    1hy4z             0.527568       0.278529
                          5       1    1hy3z2            0.527568       0.425460
                          5       1    1hy2z3            0.527568       0.425460
                          5       1    1hyz4             0.527568       0.278529
                          5       1    1hz5              0.527568       0.092843

                          6       1    1s                0.530900       0.443271

                          7       1    1fx3              0.738473       0.744230
                          7       1    1fx2y             0.738473       1.664150
                          7       1    1fx2z             0.738473       1.664150
                          7       1    1fxy2             0.738473       1.664150
                          7       1    1fxyz             0.738473       2.882392
                          7       1    1fxz2             0.738473       1.664150
                          7       1    1fy3              0.738473       0.744230
                          7       1    1fy2z             0.738473       1.664150
                          7       1    1fyz2             0.738473       1.664150
                          7       1    1fz3              0.738473       0.744230

                          8       1    1px               1.004026       1.432588
                          8       1    1py               1.004026       1.432588
                          8       1    1pz               1.004026       1.432588

                          9       1    1dx2              1.119820       2.006406
                          9       1    1dxy              1.119820       3.475197
                          9       1    1dxz              1.119820       3.475197
                          9       1    1dy2              1.119820       2.006406
                          9       1    1dyz              1.119820       3.475197
                          9       1    1dz2              1.119820       2.006406

                         10       1    1s                1.393963       0.914321

                         11       1    1gx4              1.404119       2.830064
                         11       1    1gx3y             1.404119       7.487644
                         11       1    1gx3z             1.404119       7.487644
                         11       1    1gx2y2            1.404119       9.666507
                         11       1    1gx2yz            1.404119      16.742882
                         11       1    1gx2z2            1.404119       9.666507
                         11       1    1gxy3             1.404119       7.487644
                         11       1    1gxy2z            1.404119      16.742882
                         11       1    1gxyz2            1.404119      16.742882
                         11       1    1gxz3             1.404119       7.487644
                         11       1    1gy4              1.404119       2.830064
                         11       1    1gy3z             1.404119       7.487644
                         11       1    1gy2z2            1.404119       9.666507
                         11       1    1gyz3             1.404119       7.487644
                         11       1    1gz4              1.404119       2.830064

                         12       1    1fx3              1.802390       5.541332
                         12       1    1fx2y             1.802390      12.390795
                         12       1    1fx2z             1.802390      12.390795
                         12       1    1fxy2             1.802390      12.390795
                         12       1    1fxyz             1.802390      21.461487
                         12       1    1fxz2             1.802390      12.390795
                         12       1    1fy3              1.802390       5.541332
                         12       1    1fy2z             1.802390      12.390795
                         12       1    1fyz2             1.802390      12.390795
                         12       1    1fz3              1.802390       5.541332

                         13       1    1ix6              1.941471       5.384789
                         13       1    1ix5y             1.941471      17.859326
                         13       1    1ix5z             1.941471      17.859326
                         13       1    1ix4y2            1.941471      30.933260
                         13       1    1ix4yz            1.941471      53.577978
                         13       1    1ix4z2            1.941471      30.933260
                         13       1    1ix3y3            1.941471      36.600727
                         13       1    1ix3y2z           1.941471      81.841714
                         13       1    1ix3yz2           1.941471      81.841714
                         13       1    1ix3z3            1.941471      36.600727
                         13       1    1ix2y4            1.941471      30.933260
                         13       1    1ix2y3z           1.941471      81.841714
                         13       1    1ix2y2z2          1.941471     105.657198
                         13       1    1ix2yz3           1.941471      81.841714
                         13       1    1ix2z4            1.941471      30.933260
                         13       1    1ixy5             1.941471      17.859326
                         13       1    1ixy4z            1.941471      53.577978
                         13       1    1ixy3z2           1.941471      81.841714
                         13       1    1ixy2z3           1.941471      81.841714
                         13       1    1ixyz4            1.941471      53.577978
                         13       1    1ixz5             1.941471      17.859326
                         13       1    1iy6              1.941471       5.384789
                         13       1    1iy5z             1.941471      17.859326
                         13       1    1iy4z2            1.941471      30.933260
                         13       1    1iy3z3            1.941471      36.600727
                         13       1    1iy2z4            1.941471      30.933260
                         13       1    1iyz5             1.941471      17.859326
                         13       1    1iz6              1.941471       5.384789

                         14       1    1px               2.643998       4.805809
                         14       1    1py               2.643998       4.805809
                         14       1    1pz               2.643998       4.805809

                         15       1    1dx2              3.091394      11.862592
                         15       1    1dxy              3.091394      20.546612
                         15       1    1dxz              3.091394      20.546612
                         15       1    1dy2              3.091394      11.862592
                         15       1    1dyz              3.091394      20.546612
                         15       1    1dz2              3.091394      11.862592

                         16       1    1hx5              3.455251      41.725627
                         16       1    1hx4y             3.455251     125.176881
                         16       1    1hx4z             3.455251     125.176881
                         16       1    1hx3y2            3.455251     191.210844
                         16       1    1hx3yz            3.455251     331.186896
                         16       1    1hx3z2            3.455251     191.210844
                         16       1    1hx2y3            3.455251     191.210844
                         16       1    1hx2y2z           3.455251     427.560445
                         16       1    1hx2yz2           3.455251     427.560445
                         16       1    1hx2z3            3.455251     191.210844
                         16       1    1hxy4             3.455251     125.176881
                         16       1    1hxy3z            3.455251     331.186896
                         16       1    1hxy2z2           3.455251     427.560445
                         16       1    1hxyz3            3.455251     331.186896
                         16       1    1hxz4             3.455251     125.176881
                         16       1    1hy5              3.455251      41.725627
                         16       1    1hy4z             3.455251     125.176881
                         16       1    1hy3z2            3.455251     191.210844
                         16       1    1hy2z3            3.455251     191.210844
                         16       1    1hyz4             3.455251     125.176881
                         16       1    1hz5              3.455251      41.725627

                         17       1    1gx4              5.019491      94.026343
                         17       1    1gx3y             5.019491     248.770320
                         17       1    1gx3z             5.019491     248.770320
                         17       1    1gx2y2            5.019491     321.161102
                         17       1    1gx2yz            5.019491     556.267347
                         17       1    1gx2z2            5.019491     321.161102
                         17       1    1gxy3             5.019491     248.770320
                         17       1    1gxy2z            5.019491     556.267347
                         17       1    1gxyz2            5.019491     556.267347
                         17       1    1gxz3             5.019491     248.770320
                         17       1    1gy4              5.019491      94.026343
                         17       1    1gy3z             5.019491     248.770320
                         17       1    1gy2z2            5.019491     321.161102
                         17       1    1gyz3             5.019491     248.770320
                         17       1    1gz4              5.019491      94.026343

                         18       1    1s                6.323282       2.841954

                         19       1    1px               6.613928      15.118699
                         19       1    1py               6.613928      15.118699
                         19       1    1pz               6.613928      15.118699

                         20       1    1dx2              6.959399      49.080615
                         20       1    1dxy              6.959399      85.010119
                         20       1    1dxz              6.959399      85.010119
                         20       1    1dy2              6.959399      49.080615
                         20       1    1dyz              6.959399      85.010119
                         20       1    1dz2              6.959399      49.080615

                         21       1    1fx3              7.060014     119.609855
                         21       1    1fx2y             7.060014     267.455767
                         21       1    1fx2z             7.060014     267.455767
                         21       1    1fxy2             7.060014     267.455767
                         21       1    1fxyz             7.060014     463.246977
                         21       1    1fxz2             7.060014     267.455767
                         21       1    1fy3              7.060014     119.609855
                         21       1    1fy2z             7.060014     267.455767
                         21       1    1fyz2             7.060014     267.455767
                         21       1    1fz3              7.060014     119.609855

                         22       1    1dx2             13.517160     156.840783
                         22       1    1dxy             13.517160     271.656205
                         22       1    1dxz             13.517160     271.656205
                         22       1    1dy2             13.517160     156.840783
                         22       1    1dyz             13.517160     271.656205
                         22       1    1dz2             13.517160     156.840783

       Atomic covalent radius [Angstrom]:                                  0.750

       Atomic van der Waals radius [Angstrom]:                             1.550

     The atoms of this atomic kind are PAW atoms (GAPW):
       Hard Gaussian function radius:                                      1.512
       Rho0 radius:                                                        1.512
       Maximum GTO radius used for PAW projector construction:            24.566

     GAPW Soft Basis Set                                  SVP-MOLOPT-GGA-ae_soft

       Number of orbital shell sets:                                           2
       Number of orbital shells:                                               6
       Number of primitive Cartesian functions:                                5
       Number of Cartesian basis functions:                                   15
       Number of spherical basis functions:                                   14
       Norm type:                                                              2

       Normalised Cartesian orbitals:

                        Set   Shell   Orbital            Exponent    Coefficient

                          1       1    2px               2.325354      -1.380142
                                                         0.634073      -0.492962
                                                         0.166384      -0.031930
                          1       1    2py               2.325354      -1.380142
                                                         0.634073      -0.492962
                                                         0.166384      -0.031930
                          1       1    2pz               2.325354      -1.380142
                                                         0.634073      -0.492962
                                                         0.166384      -0.031930

                          1       2    3px               2.325354      -0.809234
                                                         0.634073      -0.220766
                                                         0.166384       0.169694
                          1       2    3py               2.325354      -0.809234
                                                         0.634073      -0.220766
                                                         0.166384       0.169694
                          1       2    3pz               2.325354      -0.809234
                                                         0.634073      -0.220766
                                                         0.166384       0.169694

                          1       3    3dx2              2.325354       1.255926
                                                         0.634073       0.555487
                                                         0.166384       0.019402
                          1       3    3dxy              2.325354       2.175327
                                                         0.634073       0.962132
                                                         0.166384       0.033606
                          1       3    3dxz              2.325354       2.175327
                                                         0.634073       0.962132
                                                         0.166384       0.033606
                          1       3    3dy2              2.325354       1.255926
                                                         0.634073       0.555487
                                                         0.166384       0.019402
                          1       3    3dyz              2.325354       2.175327
                                                         0.634073       0.962132
                                                         0.166384       0.033606
                          1       3    3dz2              2.325354       1.255926
                                                         0.634073       0.555487
                                                         0.166384       0.019402

                          2       1    1s                0.666629       0.012902
                                                         0.191012      -0.002582

                          2       2    2s                0.666629       0.351708
                                                         0.191012       0.079194

                          2       3    3s                0.666629      -0.436823
                                                         0.191012       0.300064

     AE Potential information for                                            ALL

       Description:                                       All-electron potential
                                          Krack, Parrinello, PCCP 2, 2105 (2000)

       Gaussian exponent of the core charge distribution:               5.979100
       Electronic configuration (s p d ...):                           4   3   0

  3. Atomic kind: H                                     Number of atoms:       8

     Orbital Basis Set                                         SVP-MOLOPT-GGA-ae

       Number of orbital shell sets:                                           1
       Number of orbital shells:                                               3
       Number of primitive Cartesian functions:                                4
       Number of Cartesian basis functions:                                    5
       Number of spherical basis functions:                                    5
       Norm type:                                                              2

       Normalised Cartesian orbitals:

                        Set   Shell   Orbital            Exponent    Coefficient

                          1       1    2s               12.248855       0.310040
                                                         1.446686       0.373852
                                                         0.374948       0.205449
                                                         0.111920       0.009149

                          1       2    3s               12.248855      -0.144753
                                                         1.446686      -0.188851
                                                         0.374948       0.007287
                                                         0.111920       0.143650

                          1       3    3px              12.248855      -0.764411
                                                         1.446686       0.896497
                                                         0.374948       0.280770
                                                         0.111920       0.007225
                          1       3    3py              12.248855      -0.764411
                                                         1.446686       0.896497
                                                         0.374948       0.280770
                                                         0.111920       0.007225
                          1       3    3pz              12.248855      -0.764411
                                                         1.446686       0.896497
                                                         0.374948       0.280770
                                                         0.111920       0.007225

     RI Auxiliary Basis Set                                    aug-cc-pV5Z-OPTRI

       Number of orbital shell sets:                                          17
       Number of orbital shells:                                              17
       Number of primitive Cartesian functions:                               17
       Number of Cartesian basis functions:                                  115
       Number of spherical basis functions:                                   81
       Norm type:                                                              2

       Normalised Cartesian orbitals:

                        Set   Shell   Orbital            Exponent    Coefficient

                          1       1    1s                0.306678       0.293712

                          2       1    1fx3              0.582788       0.436871
                          2       1    1fx2y             0.582788       0.976873
                          2       1    1fx2z             0.582788       0.976873
                          2       1    1fxy2             0.582788       0.976873
                          2       1    1fxyz             0.582788       1.691994
                          2       1    1fxz2             0.582788       0.976873
                          2       1    1fy3              0.582788       0.436871
                          2       1    1fy2z             0.582788       0.976873
                          2       1    1fyz2             0.582788       0.976873
                          2       1    1fz3              0.582788       0.436871

                          3       1    1dx2              0.740674       0.973323
                          3       1    1dxy              0.740674       1.685844
                          3       1    1dxz              0.740674       1.685844
                          3       1    1dy2              0.740674       0.973323
                          3       1    1dyz              0.740674       1.685844
                          3       1    1dz2              0.740674       0.973323

                          4       1    1s                0.854346       0.633338

                          5       1    1px               0.977704       1.385796
                          5       1    1py               0.977704       1.385796
                          5       1    1pz               0.977704       1.385796

                          6       1    1gx4              1.260673       2.104225
                          6       1    1gx3y             1.260673       5.567256
                          6       1    1gx3z             1.260673       5.567256
                          6       1    1gx2y2            1.260673       7.187297
                          6       1    1gx2yz            1.260673      12.448763
                          6       1    1gx2z2            1.260673       7.187297
                          6       1    1gxy3             1.260673       5.567256
                          6       1    1gxy2z            1.260673      12.448763
                          6       1    1gxyz2            1.260673      12.448763
                          6       1    1gxz3             1.260673       5.567256
                          6       1    1gy4              1.260673       2.104225
                          6       1    1gy3z             1.260673       5.567256
                          6       1    1gy2z2            1.260673       7.187297
                          6       1    1gyz3             1.260673       5.567256
                          6       1    1gz4              1.260673       2.104225

                          7       1    1fx3              1.313322       2.718252
                          7       1    1fx2y             1.313322       6.078196
                          7       1    1fx2z             1.313322       6.078196
                          7       1    1fxy2             1.313322       6.078196
                          7       1    1fxyz             1.313322      10.527744
                          7       1    1fxz2             1.313322       6.078196
                          7       1    1fy3              1.313322       2.718252
                          7       1    1fy2z             1.313322       6.078196
                          7       1    1fyz2             1.313322       6.078196
                          7       1    1fz3              1.313322       2.718252

                          8       1    1dx2              1.868623       4.915553
                          8       1    1dxy              1.868623       8.513988
                          8       1    1dxz              1.868623       8.513988
                          8       1    1dy2              1.868623       4.915553
                          8       1    1dyz              1.868623       8.513988
                          8       1    1dz2              1.868623       4.915553

                          9       1    1s                2.242991       1.306263

                         10       1    1hx5              2.510965      14.785170
                         10       1    1hx4y             2.510965      44.355509
                         10       1    1hx4z             2.510965      44.355509
                         10       1    1hx3y2            2.510965      67.754159
                         10       1    1hx3yz            2.510965     117.353645
                         10       1    1hx3z2            2.510965      67.754159
                         10       1    1hx2y3            2.510965      67.754159
                         10       1    1hx2y2z           2.510965     151.502904
                         10       1    1hx2yz2           2.510965     151.502904
                         10       1    1hx2z3            2.510965      67.754159
                         10       1    1hxy4             2.510965      44.355509
                         10       1    1hxy3z            2.510965     117.353645
                         10       1    1hxy2z2           2.510965     151.502904
                         10       1    1hxyz3            2.510965     117.353645
                         10       1    1hxz4             2.510965      44.355509
                         10       1    1hy5              2.510965      14.785170
                         10       1    1hy4z             2.510965      44.355509
                         10       1    1hy3z2            2.510965      67.754159
[...]
 qs_energies_properties               1  3.0    0.000    0.000  215.905  215.906
 tddfpt                               1  4.0    0.000    0.000  215.905  215.905
 tddfpt_energies                      1  5.0    0.000    0.001  215.862  215.862
 tddfpt_davidson_solver               1  6.0    0.002    0.004  214.129  214.129
 tddfpt_compute_Aop_evects           10  7.0    0.000    0.000  210.577  210.577
 fhxc_kernel                         10  8.0    0.009    0.010  188.415  188.416
 pw_poisson_solve                   272  9.5    2.556    2.957   93.435   94.161
 fft_wrap_pw1pw2                   5526 11.1    0.090    0.124   85.910   86.834
 scf_env_do_scf                       1  3.0    0.000    0.000   86.423   86.427
 scf_env_do_scf_inner_loop           72  4.0    0.002    0.005   86.423   86.427
 tddfpt_apply_coulomb               200  9.0    0.004    0.005   82.811   83.500
 fft_wrap_pw1pw2_250               3888 12.2    2.688    3.056   81.051   81.995
 fft3d_ps                          5526 13.1   25.757   27.967   74.335   75.867
 ps_wavelet_solve                   272 10.5   28.164   40.484   67.435   67.699
 qs_ks_update_qs_env                 72  5.0    0.000    0.001   64.349   64.359
 rebuild_ks_matrix                   72  6.0    0.000    0.000   64.343   64.353
 qs_ks_build_kohn_sham_matrix        72  7.0    0.011    0.012   64.343   64.353
 mp_alltoall_z22v                  5526 15.1   42.126   52.067   42.126   52.067
 qs_rho_update_rho_low              274  7.9    0.003    0.003   50.480   50.489
 calculate_rho_elec                 274  8.9    0.598    0.640   44.915   44.923
 mp_alltoall_d54                    272 11.5   15.121   37.547   15.121   37.547
 xc_pw_derive                      1635 11.0    0.016    0.020   35.142   36.671
 tddfpt_apply_xc_analytic           200  9.0    0.138    0.176   31.313   31.478
 integrate_v_rspace                 272  9.0    0.006    0.008   30.964   31.437
 density_rs2pw                      274  9.9    0.016    0.019   28.773   31.029
 yz_to_x                           2182 14.5    1.983    2.497   21.865   27.831
 mp_alltoall_d45                    273 11.5   23.948   26.727   23.948   26.727
 x_to_yz                           2252 13.8    2.637    3.017   24.691   26.492
 potential_pw2rs                    272 10.0    0.057    0.076   25.682   26.127
 xc_pw_divergence                   272 10.7    0.009    0.011   23.696   24.937
 integrate_four_center              472  9.8    9.804   15.839   24.653   24.775
 transfer_pw2rs                    1361 10.9    0.019    0.023   23.143   23.311
 transfer_rs2pw                    1370 10.9    0.034    0.072   20.892   23.079
 tddfpt_apply_hfx                    10  8.0    0.004    0.005   20.552   20.552
 xc_calc_2nd_deriv_analytical       600 10.1    0.967    1.116   18.356   18.469
 grid_collocate_task_list           274  9.9   14.984   16.999   14.984   16.999
 mp_waitany                       68838 12.8   14.930   16.852   14.930   16.852
 mp_sync                           2491 11.5    7.003   16.333    7.003   16.333
 tddft_hfx_matrix                   400  9.0    0.011    0.012   15.878   15.967
 mp_alltoall_d11v                 17512 11.7   11.711   15.478   11.711   15.478
 prepare_gapw_den                   273  8.7    0.006    0.007   15.223   15.405
 qs_vxc_create                       72  8.0    0.001    0.001   13.002   13.004
 xc_vxc_pw_create                    72  9.0    0.201    0.232   13.001   13.004
 transfer_pw2rs_250                 545 11.7    4.006    4.387   12.506   12.953
 transfer_rs2pw_250                 548 11.8    3.917    4.491   10.331   12.750
 integrate_vhg0_rspace              272  9.5    0.237    0.351   11.967   12.098
 put_rho0_on_grid                   273  9.7    0.647    0.855   11.867   12.049
 mp_sum_dm                        15689 10.1    9.444    9.784    9.444    9.784
 cp_dbcsr_sm_fm_multiply           1246  8.6    0.026    0.029    8.993    9.113
 hfx_ks_matrix                       72  8.0    0.003    0.003    8.792    8.835
 sum_up_and_integrate                72  8.0    0.001    0.001    7.729    7.758
 xc_rho_set_and_dset_create          73 10.0    0.171    0.215    5.931    6.319
 mp_sum_d                          5601  7.7    3.594    6.294    3.594    6.294
 mp_waitall_1                    560554 13.2    5.008    6.254    5.008    6.254
 dbcsr_complete_redistribute       4133 10.5    0.172    0.224    6.123    6.245
 transfer_rs2pw_30                  274 11.9    2.603    2.703    5.887    6.011
 transfer_pw2rs_30                  272 12.0    2.504    2.706    5.673    5.932
 gspace_mixing                       71  5.0    0.154    0.165    5.598    5.598
 calculate_rho_atom_coeff           274  8.9    0.086    0.143    5.562    5.563
 rs_gather_matrices                 272 10.0    0.007    0.013    4.937    5.318
 gaVxcgb_GC                         272  9.7    0.130    5.310    0.130    5.310
 grid_integrate_task_list           272 10.0    0.338    5.056    0.338    5.056
 calculate_xc_2nd_deriv_atom        200  9.0    0.072    0.622    0.206    4.762
 mp_sendrecv_dv                  117820 12.9    4.375    4.535    4.375    4.535
 copy_dbcsr_to_fm                  1340  9.3    0.018    0.020    4.176    4.238
 pw_scatter_p                      2796 12.8    3.570    4.178    3.570    4.178
 copy_fm_to_dbcsr                  2791  9.6    0.013    0.014    4.029    4.155
 broyden_mixing                      71  6.0    3.911    4.017    4.045    4.104
 transfer_pw2rs_90                  272 12.0    0.719    0.869    3.166    3.746
 dbcsr_multiply_generic            1718 10.3    0.079    0.087    3.524    3.628
 pw_gather_p                       2730 13.4    3.001    3.485    3.001    3.485
 cp2k_distribution_to_z_slices      272 10.5    1.273    1.414    2.773    3.393
 fft_wrap_pw1pw2_90                 546 12.0    0.083    0.185    2.945    3.334
 transfer_rs2pw_90                  274 11.9    0.732    0.910    2.879    3.308
 mp_isendrecv_dv                 319920 12.3    1.789    3.179    1.789    3.179
 rs_grid_zero                      1363 11.9    2.910    3.072    2.910    3.072
 mp_alltoall_i11v                 13740 11.5    3.046    3.054    3.046    3.054
 qs_scf_new_mos                      72  5.0    0.001    0.001    2.989    2.997
 calc_screening_functions             1 10.0    2.026    2.166    2.833    2.969
 calculate_rho_atom                1092  9.7    1.237    2.956    1.237    2.956
 cp_fm_syevd                        124  7.2    0.001    0.001    2.921    2.927
 pw_derive                         2451 11.8    2.686    2.854    2.686    2.854
 create_qs_kind_set                   1  2.0    0.000    0.000    2.840    2.841
 read_qs_kind                         4  3.0    1.558    1.597    2.840    2.841
 cp_fm_redistribute_end             124  8.2    1.438    2.757    1.445    2.763
 cp_fm_syevd_base                   124  8.2    1.314    2.632    1.314    2.632
 cp_dbcsr_sm_fm_multiply_core      1246  9.6    0.003    0.004    2.427    2.523
 mp_sum_dv                        26792  8.9    2.272    2.380    2.272    2.380
 integrate_four_center_main         472 10.8    0.067    0.881    2.013    2.360
 integrate_four_center_bin        31643 11.8    1.946    2.265    1.946    2.265
 eigensolver_symm                    72  6.0    0.002    0.002    2.189    2.192
 multiply_cannon                   1718 11.3    0.213    0.219    2.072    2.157
 dbcsr_desymmetrize_deep           1341 10.3    0.038    0.044    1.965    2.024
 tddfpt_orthonormalize_psi1_psi      11  6.9    0.029    0.031    2.014    2.014
 pw_copy                           3685 11.0    1.837    1.999    1.837    1.999
 pw_copy_to_array                  2730 13.4    1.287    1.993    1.287    1.993
 cp_dbcsr_plus_fm_fm_t              272  8.5    0.004    0.005    1.861    1.884
 transfer_pw2rs_10                  272 12.0    0.659    0.769    1.780    1.860
 transfer_rs2pw_10                  274 11.9    0.670    0.722    1.761    1.798
 mp_isend_dv                     181586 13.8    1.099    1.731    1.099    1.731
 multiply_cannon_loop              1718 12.3    0.399    0.420    1.582    1.708
 powell_optimize                 624691 11.0    1.540    1.682    1.540    1.682
 pw_poisson_set                     273 10.5    0.007    0.009    1.612    1.648
 tddfpt_apply_energy_diff            10  8.0    0.001    0.001    1.609    1.610
 calculate_vxc_atom                  72  8.0    0.049    0.142    1.575    1.576
 mp_irecv_dm3                      9834 12.8    0.737    1.516    0.737    1.516
 parallel_gemm_fm                  1817  8.3    0.002    0.003    1.432    1.454
 parallel_gemm_fm_gemm             1817  9.3    0.002    0.003    1.429    1.451
 cp_fm_gemm                        1817 10.3    1.427    1.449    1.427    1.449
 xc_functional_eval                 617 10.9    0.001    0.003    0.986    1.419
 pbe_lda_eval                       617 11.9    0.985    1.417    0.985    1.417
 tddfpt_compute_residual_vects        9  7.0    0.001    0.001    1.341    1.341
 Vh_1c_gg_integrals                 272  9.5    0.035    0.477    0.666    1.309
 parser_read_line                332577  4.0    0.112    0.121    1.281    1.308
 calc_pair_dist_radii                 1 10.0    0.424    0.432    1.156    1.303
 mp_alltoall_z11v                  1092 15.0    1.251    1.295    1.251    1.295
 pw_integral_ab_c1d_c1d_gs          272 10.5    0.885    0.891    1.191    1.291
 fft_wrap_pw1pw2_30                 546 12.0    0.016    0.017    1.172    1.214
 mp_isend_dm3                      9834 12.8    0.539    1.211    0.539    1.211
 tddfpt_print_nto_analysis            1  6.0    0.002    0.003    1.203    1.203
 parser_read_line_low               357  5.0    0.096    0.525    1.170    1.197
 broadcast_input_information        357  6.0    0.238    0.267    1.074    1.142
 pw_axpy                           2928 10.8    1.006    1.135    1.006    1.135
 make_m2s                          3436 11.3    0.069    0.081    1.002    1.062
 pw_copy_from_array                2796 12.8    0.835    1.045    0.835    1.045
 hybrid_alltoall_any               4777 13.5    0.045    0.056    0.976    1.014
 pw_zero                           3038 10.6    0.869    1.004    0.869    1.004
 mp_max_i                           773  5.2    0.353    0.962    0.353    0.962
 integrate_four_center_getP         472 10.8    0.166    0.180    0.933    0.943
 yz_to_xz                           544 14.0    0.049    0.056    0.865    0.908
 mp_alltoall_i22                   5474 11.5    0.737    0.896    0.737    0.896
 integrate_four_center_dist_KS      472 10.8    0.165    0.182    0.881    0.885
 make_images                       3436 12.3    0.194    0.198    0.822    0.868
 offload_free_buffer                280 10.3    0.618    0.750    0.618    0.750
 qs_energies_init_hamiltonians        1  3.0    0.000    0.000    0.711    0.711
 build_core_hamiltonian_matrix        1  4.0    0.000    0.000    0.699    0.699
 overlap_condnum                      1  5.0    0.000    0.000    0.696    0.697
 fft_wrap_pw1pw2_10                 546 12.0    0.005    0.006    0.652    0.661
 cp_fm_geeig                         20  7.0    0.001    0.001    0.634    0.635
 pw_poisson_rebuild                 272 10.5    0.000    0.001    0.570    0.593
 ps_wavelet_create                    1 10.0    0.000    0.000    0.570    0.593
 RS_z_slice_distribution              1 11.0    0.499    0.554    0.570    0.593
 arnoldi_conjugate_gradient           5  6.0    0.013    0.016    0.583    0.583
 mp_bcast_i_src                    1428  7.0    0.373    0.582    0.373    0.582
 mp_bcast_am_src                    357  7.0    0.410    0.534    0.446    0.570
 cp_fm_trace_a1b1t1_aa            20310  8.0    0.095    0.101    0.508    0.513
 update_ks_atom                     272  8.7    0.062    0.099    0.463    0.508
 calculate_dm_sparse                 72  6.0    0.001    0.001    0.472    0.481
 xz_to_yz                           548 13.9    0.032    0.037    0.467    0.473
 mp_rank_compare                   5526 14.1    0.452    0.471    0.452    0.471
 mp_bcast_dm                      10336  9.7    0.401    0.435    0.401    0.435
 multiply_cannon_metrocomm3       61848 13.3    0.101    0.107    0.276    0.394
 calculate_rho0_atom               1092  9.7    0.377    0.386    0.377    0.386
 mp_sum_l                          6530 10.6    0.344    0.384    0.344    0.384
 multiply_cannon_metrocomm4       58412 13.3    0.173    0.181    0.335    0.377
 make_images_sizes                 3436 13.3    0.004    0.004    0.343    0.364
 mp_alltoall_i44                   3436 14.3    0.339    0.360    0.339    0.360
 dbcsr_sym_matrix_vector_mult      1952  7.0    0.031    0.036    0.321    0.356
 dbcsr_finalize                   11301 11.4    0.048    0.081    0.217    0.347
 prepare_dr1dr                      600 11.1    0.300    0.337    0.300    0.337
 init_scf_run                         1  3.0    0.000    0.000    0.330    0.331
 multiply_cannon_metrocomm2       56694 13.3    0.169    0.178    0.301    0.328
 scf_env_initial_rho_setup            1  4.0    0.000    0.000    0.296    0.296
 scale_and_distribute               544 11.5    0.273    0.295    0.273    0.295
 mp_cart_sub                       2684 11.3    0.284    0.286    0.284    0.286
 multiply_cannon_metrocomm1       61848 13.3    0.072    0.075    0.173    0.256
 tddfpt_construct_ground_state_       1  6.0    0.000    0.000    0.239    0.239
 multiply_cannon_multrec          61848 13.3    0.090    0.220    0.097    0.228
 mp_cart_create                    2433 10.6    0.199    0.215    0.201    0.218
 rs_scatter_matrices                274  9.9    0.003    0.006    0.205    0.214
 xc_2nd_deriv_of_r                  400 10.0    0.003    0.043    0.016    0.213
 integrate_four_center_load         472 10.8    0.001    0.002    0.172    0.210
 hfx_load_balance                     1 11.0    0.000    0.000    0.171    0.209
 dbcsr_create_new                 43306 11.6    0.151    0.158    0.196    0.204
 mp_allgather_i34                  1718 12.3    0.164    0.201    0.164    0.201
 dbcsr_merge_all                   9195 12.4    0.094    0.143    0.123    0.196
 hfx_load_balance_range               1 12.0    0.000    0.000    0.147    0.185
 make_images_data                  3436 13.3    0.044    0.058    0.111    0.184
 dbcsr_add_d                       2983  7.0    0.003    0.003    0.029    0.183
 tddfpt_compute_ritz_vects           10  7.0    0.009    0.009    0.179    0.180
 dbcsr_add_anytype                 2983  8.0    0.004    0.023    0.026    0.179
 mp_irecv_dv                     182228 13.8    0.126    0.172    0.126    0.172
 cp_fm_redistribute_start           124  8.2    0.130    0.133    0.162    0.171
 qs_init_subsys                       1  2.0    0.004    0.004    0.167    0.167
 qs_env_setup                         1  3.0    0.000    0.000    0.154    0.157
 qs_env_rebuild_pw_env                2  3.5    0.000    0.000    0.153    0.156
 pw_env_rebuild                       1  5.0    0.001    0.001    0.153    0.155
 dbcsr_col_vec_to_rep_row          1952  8.0    0.014    0.016    0.112    0.146
 pw_grid_setup                        4  6.0    0.000    0.000    0.135    0.137
 pw_grid_setup_internal               4  7.0    0.003    0.004    0.135    0.137
 dbcsr_special_finalize            8590 13.3    0.034    0.035    0.098    0.128
 dbcsr_rep_row_to_rep_col_vec      1952  8.0    0.010    0.012    0.055    0.127
 pw_scale                           688  9.5    0.106    0.126    0.106    0.126
 cube_transpose_2                   548 13.9    0.011    0.012    0.110    0.121
 dbcsr_iterator_start             52883 10.8    0.065    0.088    0.080    0.114
 rs_grid_create                     278 10.4    0.001    0.002    0.012    0.108
 tddfpt_orthogonalize_psi1_psi0      11  6.9    0.000    0.001    0.094    0.107
 cube_transpose_1                   544 14.0    0.009    0.011    0.099    0.107
 offload_create_buffer              280 11.3    0.011    0.106    0.011    0.106
 mp_isend_iv                     124048 14.3    0.093    0.106    0.093    0.106
 create_kernel_env                    1  6.0    0.000    0.000    0.096    0.104
 xc_prep_2nd_deriv                    1  7.0    0.000    0.000    0.096    0.104
 copy_fm_to_dbcsr_bc               2791 10.6    0.031    0.034    0.090    0.097
 dbcsr_copy                       12104  8.7    0.040    0.045    0.081    0.092
 mp_bcast_dv                       2076  9.0    0.051    0.091    0.051    0.091
 dbcsr_make_images_dense            944 11.7    0.017    0.021    0.048    0.082
 dbcsr_merge_single_wm             8590 14.3    0.044    0.053    0.053    0.082
 dbcsr_work_create                19126 12.5    0.039    0.050    0.059    0.080
 dbcsr_destroy                    39334 11.0    0.051    0.053    0.073    0.080
 cp_fm_symm                          72  7.0    0.068    0.074    0.068    0.074
 dbcsr_iterator_stop              52883 10.8    0.047    0.060    0.057    0.073
 dbcsr_data_new                  133740 12.6    0.061    0.072    0.061    0.072
 mp_bcast_iv                        412  7.2    0.036    0.071    0.036    0.071
 mp_cart_rank                    235476 11.0    0.063    0.071    0.063    0.071
 pw_grid_sort                         4  8.0    0.043    0.045    0.067    0.071
 dbcsr_data_release              210319 12.5    0.058    0.070    0.058    0.070
 dbcsr_work_destroy_all           19126 13.4    0.035    0.047    0.047    0.064
 tddfpt_is_nonorthogonal_psi1_p       9  7.0    0.000    0.001    0.062    0.062
 mp_irecv_iv                     125414 14.3    0.051    0.061    0.051    0.061
 scf_post_calculation_gpw             1  3.0    0.000    0.000    0.058    0.058
 mixing_init                          1  5.0    0.041    0.057    0.057    0.058
 write_available_results              1  4.0    0.000    0.000    0.057    0.058
 write_mo_free_results                1  5.0    0.003    0.004    0.057    0.057
 cp_fm_cholesky_decompose            20  8.0    0.054    0.054    0.054    0.054
 cp_fm_write_unformatted             44  7.5    0.040    0.046    0.041    0.054
 dbcsr_make_dense_low              2360 12.7    0.012    0.013    0.019    0.050
 setup_buffer_matrices             3436 12.3    0.014    0.015    0.043    0.049
 cp_fm_triangular_multiply           60  8.0    0.045    0.046    0.045    0.046
 vxc_of_r_new                       144  9.0    0.001    0.007    0.004    0.043
 cp_fm_triangular_invert             20  8.0    0.041    0.042    0.041    0.042
 cp_fm_power                          1  6.0    0.000    0.000    0.041    0.041
 mp_bcast_iv_src                    357  7.0    0.016    0.039    0.016    0.039
 pw_pool_create_pw                 9490 10.8    0.021    0.024    0.028    0.033
 mp_max_d                           254  8.4    0.023    0.033    0.023    0.033
 dbcsr_make_untransposed_blocks    2790 11.4    0.017    0.022    0.027    0.033
 tddfpt_write_restart                 2  6.5    0.000    0.002    0.031    0.031
 -------------------------------------------------------------------------------

 The number of warnings for this run is : 1
 
 -------------------------------------------------------------------------------
  **** **** ******  **  PROGRAM ENDED AT                 2025-04-02 10:15:42.159
 ***** ** ***  *** **   PROGRAM RAN ON                              i04r04c05s05
 **    ****   ******    PROGRAM RAN BY                                   di38fab
 ***** **    ** ** **   PROGRAM PROCESS ID                               3075091
  **** **  *******  **  PROGRAM STOPPED IN /hppfs/scratch/04/di38fab/07_MOL_non_
                                           aug/05_MOL_non_aug/05_MOL/aUKBqsEOTmq
                                           69kFe5R_nOg/5k_set_final_qzvp/TIRNAK/
                                           SZV/TDDFT
