 DBCSR| CPU Multiplication driver                                           BLAS (U)
 DBCSR| Multrec recursion limit                                              512 (U)
 DBCSR| Multiplication stack size                                           1000 (D)
 DBCSR| Maximum elements for images                                    UNLIMITED (U)
 DBCSR| Multiplicative factor virtual images                                   1 (U)
 DBCSR| Use multiplication densification                                       T (D)
 DBCSR| Multiplication size stacks                                             3 (U)
 DBCSR| Use memory pool for CPU allocation                                     F (U)
 DBCSR| Number of 3D layers                                               SINGLE (U)
 DBCSR| Use MPI memory allocation                                              F (U)
 DBCSR| Use RMA algorithm                                                      F (U)
 DBCSR| Use Communication thread                                               T (U)
 DBCSR| Communication thread load                                             75 (D)
 DBCSR| MPI: My process id                                                     0
 DBCSR| MPI: Number of processes                                              96
 DBCSR| OMP: Current number of threads                                         4
 DBCSR| OMP: Max number of threads                                             4
 DBCSR| Split modifier for TAS multiplication algorithm                  1.0E+00 (U)


  **** **** ******  **  PROGRAM STARTED AT               2025-04-14 03:32:41.182
 ***** ** ***  *** **   PROGRAM STARTED ON                          i02r01c03s09
 **    ****   ******    PROGRAM STARTED BY                               di38fab
 ***** **    ** ** **   PROGRAM PROCESS ID                               2345675
  **** **  *******  **  PROGRAM STARTED IN /hppfs/scratch/04/di38fab/05_MOL/W4-1
                                           1+ALK/cf4/aug-cc-pVQZ/TDDFT

 CP2K| version string:                 CP2K version 2025.1 (Development Version)
 CP2K| source code revision number:                             unknown revision
 CP2K| cp2kflags: omp libint fftw3 libxc parallel scalapack max_contr=4         
 CP2K| is freely available from                            https://www.cp2k.org/
 CP2K| Program compiled at                         Thu Apr 10 16:20:23 CEST 2025
 CP2K| Program compiled on                                               login01
 CP2K| Program compiled for                                        Supermuc-foss
 CP2K| Data directory path                  /hppfs/work/pn36zo/di38fab/cp2k/data
 CP2K| Input file name                                                    GW.inp

 GLOBAL| Force Environment number                                              1
 GLOBAL| Basis set file name            /hppfs/scratch/04/di38fab/04_TMD/BASIS_A
 GLOBAL| Potential file name            /hppfs/work/pn36zo/di38fab/cp2k/data/ALL
 GLOBAL| MM Potential file name                                     MM_POTENTIAL
 GLOBAL| Coordinate file name                                      __STD_INPUT__
 GLOBAL| Method name                                                        CP2K
 GLOBAL| Project name                                                       MoS2
 GLOBAL| Run type                                                         ENERGY
 GLOBAL| FFT library                                                       FFTW3
 GLOBAL| Diagonalization library                                       ScaLAPACK
 GLOBAL| DGEMM library                                                      BLAS
 GLOBAL| Orthonormality check for eigenvectors                          DISABLED
 GLOBAL| Matrix multiplication library                                 ScaLAPACK
 GLOBAL| All-to-all communication in single precision                          F
 GLOBAL| FFTs using library dependent lengths                                  F
 GLOBAL| Grid backend                                                       AUTO
 GLOBAL| Global print level                                               MEDIUM
 GLOBAL| MPI I/O enabled                                                       T
 GLOBAL| Total number of message passing processes                            96
 GLOBAL| Number of threads for this process                                    4
 GLOBAL| This output is from process                                           0
 GLOBAL| OpenMP stack size per thread (OMP_STACKSIZE)                    default
 GLOBAL| CPU model name             Intel(R) Xeon(R) Platinum 8174 CPU @ 3.10GHz

 MEMORY| system memory details [Kb]
 MEMORY|                        rank 0           min           max       average
 MEMORY| MemTotal             98436708      98436660      98436944      98436715
 MEMORY| MemFree              83923884      83758612      85643580      84069303
 MEMORY| Buffers                     0             0             0             0
 MEMORY| Cached                2425100       2274192       2452496       2416222
 MEMORY| Slab                  1219692        954924       1253300       1206673
 MEMORY| SReclaimable           273128        221504        281508        269516
 MEMORY| MemLikelyFree        86622112      86462340      88139276      86755041


 *** Fundamental physical constants (SI units) ***

 *** Literature: B. J. Mohr and B. N. Taylor,
 ***             CODATA recommended values of the fundamental physical
 ***             constants: 2006, Web Version 5.1
 ***             http://physics.nist.gov/constants

 Speed of light in vacuum [m/s]                             2.99792458000000E+08
 Magnetic constant or permeability of vacuum [N/A**2]       1.25663706143592E-06
 Electric constant or permittivity of vacuum [F/m]          8.85418781762039E-12
 Planck constant (h) [J*s]                                  6.62606896000000E-34
 Planck constant (h-bar) [J*s]                              1.05457162825177E-34
 Elementary charge [C]                                      1.60217648700000E-19
 Electron mass [kg]                                         9.10938215000000E-31
 Electron g factor [ ]                                     -2.00231930436220E+00
 Proton mass [kg]                                           1.67262163700000E-27
 Fine-structure constant                                    7.29735253760000E-03
 Rydberg constant [1/m]                                     1.09737315685270E+07
 Avogadro constant [1/mol]                                  6.02214179000000E+23
 Boltzmann constant [J/K]                                   1.38065040000000E-23
 Atomic mass unit [kg]                                      1.66053878200000E-27
 Bohr radius [m]                                            5.29177208590000E-11

 *** Conversion factors ***

 [u] -> [a.u.]                                              1.82288848426455E+03
 [Angstrom] -> [Bohr] = [a.u.]                              1.88972613288564E+00
 [a.u.] = [Bohr] -> [Angstrom]                              5.29177208590000E-01
 [a.u.] -> [s]                                              2.41888432650478E-17
 [a.u.] -> [fs]                                             2.41888432650478E-02
 [a.u.] -> [J]                                              4.35974393937059E-18
 [a.u.] -> [N]                                              8.23872205491840E-08
 [a.u.] -> [K]                                              3.15774647902944E+05
 [a.u.] -> [kJ/mol]                                         2.62549961709828E+03
 [a.u.] -> [kcal/mol]                                       6.27509468713739E+02
 [a.u.] -> [Pa]                                             2.94210107994716E+13
 [a.u.] -> [bar]                                            2.94210107994716E+08
 [a.u.] -> [atm]                                            2.90362800883016E+08
 [a.u.] -> [eV]                                             2.72113838565563E+01
 [a.u.] -> [Hz]                                             6.57968392072181E+15
 [a.u.] -> [1/cm] (wave numbers)                            2.19474631370540E+05
 [a.u./Bohr**2] -> [1/cm]                                   5.14048714338585E+03
 

 CELL_TOP| Volume [angstrom^3]:                                     27000.000000
 CELL_TOP| Vector a [angstrom    30.000     0.000     0.000   |a| =    30.000000
 CELL_TOP| Vector b [angstrom     0.000    30.000     0.000   |b| =    30.000000
 CELL_TOP| Vector c [angstrom     0.000     0.000    30.000   |c| =    30.000000
 CELL_TOP| Angle (b,c), alpha [degree]:                                90.000000
 CELL_TOP| Angle (a,c), beta  [degree]:                                90.000000
 CELL_TOP| Angle (a,b), gamma [degree]:                                90.000000
 CELL_TOP| Numerically orthorhombic:                                         YES
 CELL_TOP| Periodicity                                                      NONE

 GENERATE|  Preliminary Number of Bonds generated:                             0
 GENERATE|  Achieved consistency in connectivity generation.

 CELL| Volume [angstrom^3]:                                         27000.000000
 CELL| Vector a [angstrom]:      30.000     0.000     0.000   |a| =    30.000000
 CELL| Vector b [angstrom]:       0.000    30.000     0.000   |b| =    30.000000
 CELL| Vector c [angstrom]:       0.000     0.000    30.000   |c| =    30.000000
 CELL| Angle (b,c), alpha [degree]:                                    90.000000
 CELL| Angle (a,c), beta  [degree]:                                    90.000000
 CELL| Angle (a,b), gamma [degree]:                                    90.000000
 CELL| Numerically orthorhombic:                                             YES
 CELL| Periodicity                                                          NONE

 CELL_REF| Volume [angstrom^3]:                                     27000.000000
 CELL_REF| Vector a [angstrom    30.000     0.000     0.000   |a| =    30.000000
 CELL_REF| Vector b [angstrom     0.000    30.000     0.000   |b| =    30.000000
 CELL_REF| Vector c [angstrom     0.000     0.000    30.000   |c| =    30.000000
 CELL_REF| Angle (b,c), alpha [degree]:                                90.000000
 CELL_REF| Angle (a,c), beta  [degree]:                                90.000000
 CELL_REF| Angle (a,b), gamma [degree]:                                90.000000
 CELL_REF| Numerically orthorhombic:                                         YES
 CELL_REF| Periodicity                                                      NONE

 *******************************************************************************
 *******************************************************************************
 **                                                                           **
 **     #####                         ##              ##                      **
 **    ##   ##            ##          ##              ##                      **
 **   ##     ##                       ##            ######                    **
 **   ##     ##  ##   ##  ##   #####  ##  ##   ####   ##    #####    #####    **
 **   ##     ##  ##   ##  ##  ##      ## ##   ##      ##   ##   ##  ##   ##   **
 **   ##  ## ##  ##   ##  ##  ##      ####     ###    ##   ######   ######    **
 **    ##  ###   ##   ##  ##  ##      ## ##      ##   ##   ##       ##        **
 **     #######   #####   ##   #####  ##  ##  ####    ##    #####   ##        **
 **           ##                                                    ##        **
 **                                                                           **
 **                                                ... make the atoms dance   **
 **                                                                           **
 **            Copyright (C) by CP2K developers group (2000-2025)             **
 **                      J. Chem. Phys. 152, 194103 (2020)                    **
 **                                                                           **
 *******************************************************************************

 DFT| Spin restricted Kohn-Sham (RKS) calculation                            RKS
 DFT| Multiplicity                                                             1
 DFT| Number of spin states                                                    1
 DFT| Charge                                                                   0
 DFT| Self-interaction correction (SIC)                                       NO
 DFT| Cutoffs: density                                              1.000000E-10
 DFT|          gradient                                             1.000000E-10
 DFT|          tau                                                  1.000000E-10
 DFT|          cutoff_smoothing_range                               0.000000E+00
 DFT| XC density smoothing                                                  NONE
 DFT| XC derivatives                                                          PW

 FUNCTIONAL| PBE:
 FUNCTIONAL| J.P.Perdew, K.Burke, M.Ernzerhof, Phys. Rev. Letter, vol. 77, n 18,
 FUNCTIONAL|  pp. 3865-3868, (1996)sx=0.750sc=1.000{spin unpolarized}           


 QS| Method:                                                                GAPW
 QS| Density plane wave grid type                        NON-SPHERICAL FULLSPACE
 QS| Number of grid levels:                                                    4
 QS| Density cutoff [a.u.]:                                                250.0
 QS| Multi grid cutoff [a.u.]: 1) grid level                               250.0
 QS|                           2) grid level                                83.3
 QS|                           3) grid level                                27.8
 QS|                           4) grid level                                 9.3
 QS| Grid level progression factor:                                          3.0
 QS| Relative density cutoff [a.u.]:                                        50.0
 QS| Interaction thresholds: eps_pgf_orb:                                1.0E-12
 QS|                         eps_filter_matrix:                          0.0E+00
 QS|                         eps_core_charge:                            1.0E-14
 QS|                         eps_rho_gspace:                             1.0E-12
 QS|                         eps_rho_rspace:                             1.0E-12
 QS|                         eps_gvg_rspace:                             1.0E-06
 QS|                         eps_ppl:                                    1.0E-02
 QS|                         eps_ppnl:                                   1.0E-08
 QS| GAPW|      One center basis from orbital basis primitives
 QS| GAPW|                   eps_fit:                                    1.0E-04
 QS| GAPW|                   eps_iso:                                    1.0E-12
 QS| GAPW|                   eps_svd:                                    1.0E-08
 QS| GAPW|                   eps_cpc:                                    1.0E-12
 QS| GAPW|   atom-r-grid: quadrature:                                     GC_LOG
 QS| GAPW|      atom-s-grid:  max l :                                          8
 QS| GAPW|      max_l_rho0 :                                                   2


 ATOMIC KIND INFORMATION

  1. Atomic kind: F                                     Number of atoms:       4

     Orbital Basis Set                                               aug-cc-pVQZ

       Number of orbital shell sets:                                          10
       Number of orbital shells:                                              20
       Number of primitive Cartesian functions:                               29
       Number of Cartesian basis functions:                                  105
       Number of spherical basis functions:                                   80
       Norm type:                                                              2

       Normalised Cartesian orbitals:

                        Set   Shell   Orbital            Exponent    Coefficient

                          1       1    1px               0.065680       0.047395
                          1       1    1py               0.065680       0.047395
                          1       1    1pz               0.065680       0.047395

                          2       1    1s                0.085940       0.113124

                          3       1    1dx2              0.207000       0.104558
                          3       1    1dxy              0.207000       0.181100
                          3       1    1dxz              0.207000       0.181100
                          3       1    1dy2              0.207000       0.104558
                          3       1    1dyz              0.207000       0.181100
                          3       1    1dz2              0.207000       0.104558

                          4       1    1px              80.390000       0.000000
                                                        18.630000       0.000000
                                                         5.694000       0.000000
                                                         1.953000       3.290924
                                                         0.670200       0.000000
                                                         0.216600       0.000000
                          4       1    1py              80.390000       0.000000
                                                        18.630000       0.000000
                                                         5.694000       0.000000
                                                         1.953000       3.290924
                                                         0.670200       0.000000
                                                         0.216600       0.000000
                          4       1    1pz              80.390000       0.000000
                                                        18.630000       0.000000
                                                         5.694000       0.000000
                                                         1.953000       3.290924
                                                         0.670200       0.000000
                                                         0.216600       0.000000

                          4       2    2px              80.390000       2.177765
                                                        18.630000       2.438752
                                                         5.694000       2.112749
                                                         1.953000       1.189876
                                                         0.670200       0.382202
                                                         0.216600       0.051274
                          4       2    2py              80.390000       2.177765
                                                        18.630000       2.438752
                                                         5.694000       2.112749
                                                         1.953000       1.189876
                                                         0.670200       0.382202
                                                         0.216600       0.051274
                          4       2    2pz              80.390000       2.177765
                                                        18.630000       2.438752
                                                         5.694000       2.112749
                                                         1.953000       1.189876
                                                         0.670200       0.382202
                                                         0.216600       0.051274

                          4       3    3px              80.390000       0.000000
                                                        18.630000       0.000000
                                                         5.694000       0.000000
                                                         1.953000       0.000000
                                                         0.670200       0.864362
                                                         0.216600       0.000000
                          4       3    3py              80.390000       0.000000
                                                        18.630000       0.000000
                                                         5.694000       0.000000
                                                         1.953000       0.000000
                                                         0.670200       0.864362
                                                         0.216600       0.000000
                          4       3    3pz              80.390000       0.000000
                                                        18.630000       0.000000
                                                         5.694000       0.000000
                                                         1.953000       0.000000
                                                         0.670200       0.864362
                                                         0.216600       0.000000

                          4       4    4px              80.390000       0.000000
                                                        18.630000       0.000000
                                                         5.694000       0.000000
                                                         1.953000       0.000000
                                                         0.670200       0.000000
                                                         0.216600       0.210627
                          4       4    4py              80.390000       0.000000
                                                        18.630000       0.000000
                                                         5.694000       0.000000
                                                         1.953000       0.000000
                                                         0.670200       0.000000
                                                         0.216600       0.210627
                          4       4    4pz              80.390000       0.000000
                                                        18.630000       0.000000
                                                         5.694000       0.000000
                                                         1.953000       0.000000
                                                         0.670200       0.000000
                                                         0.216600       0.210627

                          5       1    1s            74530.000000       0.305409
                                                     11170.000000       0.571488
                                                      2543.000000       0.984652
                                                       721.000000       1.579315
                                                       235.900000       2.328994
                                                        85.600000       2.998782
                                                        33.550000       3.062569
                                                        13.930000       2.029128
                                                         5.915000       0.570457
                                                         1.843000       0.019335
                                                         0.712400      -0.001114
                                                         0.263700       0.000228

                          5       2    2s            74530.000000       0.000000
                                                     11170.000000       0.000000
                                                      2543.000000       0.000000
                                                       721.000000       0.000000
                                                       235.900000       0.000000
                                                        85.600000       0.000000
                                                        33.550000       0.000000
                                                        13.930000       0.000000
                                                         5.915000       0.000000
                                                         1.843000       1.127338
                                                         0.712400       0.000000
                                                         0.263700       0.000000

                          5       3    3s            74530.000000       0.000000
                                                     11170.000000       0.000000
                                                      2543.000000       0.000000
                                                       721.000000       0.000000
                                                       235.900000       0.000000
                                                        85.600000       0.000000
                                                        33.550000       0.000000
                                                        13.930000       0.000000
                                                         5.915000       0.000000
                                                         1.843000       0.000000
                                                         0.712400       0.552654
                                                         0.263700       0.000000

                          5       4    4s            74530.000000      -0.070726
                                                     11170.000000      -0.133192
                                                      2543.000000      -0.227404
                                                       721.000000      -0.371673
                                                       235.900000      -0.551778
                                                        85.600000      -0.763388
                                                        33.550000      -0.856807
                                                        13.930000      -0.800980
                                                         5.915000      -0.299821
                                                         1.843000       0.336804
                                                         0.712400       0.323309
                                                         0.263700       0.071116

                          5       5    5s            74530.000000       0.000000
                                                     11170.000000       0.000000
                                                      2543.000000       0.000000
                                                       721.000000       0.000000
                                                       235.900000       0.000000
                                                        85.600000       0.000000
                                                        33.550000       0.000000
                                                        13.930000       0.000000
                                                         5.915000       0.000000
                                                         1.843000       0.000000
                                                         0.712400       0.000000
                                                         0.263700       0.262266

                          6       1    1fx3              0.460000       0.256543
                          6       1    1fx2y             0.460000       0.573647
                          6       1    1fx2z             0.460000       0.573647
                          6       1    1fxy2             0.460000       0.573647
                          6       1    1fxyz             0.460000       0.993585
                          6       1    1fxz2             0.460000       0.573647
                          6       1    1fy3              0.460000       0.256543
                          6       1    1fy2z             0.460000       0.573647
                          6       1    1fyz2             0.460000       0.573647
                          6       1    1fz3              0.460000       0.256543

                          7       1    1dx2              5.014000      27.652349
                                                         1.725000       0.000000
                                                         0.586000       0.000000
                          7       1    1dxy              5.014000      47.895274
                                                         1.725000       0.000000
                                                         0.586000       0.000000
                          7       1    1dxz              5.014000      47.895274
                                                         1.725000       0.000000
                                                         0.586000       0.000000
                          7       1    1dy2              5.014000      27.652349
                                                         1.725000       0.000000
                                                         0.586000       0.000000
                          7       1    1dyz              5.014000      47.895274
                                                         1.725000       0.000000
                                                         0.586000       0.000000
                          7       1    1dz2              5.014000      27.652349
                                                         1.725000       0.000000
                                                         0.586000       0.000000

                          7       2    2dx2              5.014000       0.000000
                                                         1.725000       4.273566
                                                         0.586000       0.000000
                          7       2    2dxy              5.014000       0.000000
                                                         1.725000       7.402033
                                                         0.586000       0.000000
                          7       2    2dxz              5.014000       0.000000
                                                         1.725000       7.402033
                                                         0.586000       0.000000
                          7       2    2dy2              5.014000       0.000000
                                                         1.725000       4.273566
                                                         0.586000       0.000000
                          7       2    2dyz              5.014000       0.000000
                                                         1.725000       7.402033
                                                         0.586000       0.000000
                          7       2    2dz2              5.014000       0.000000
                                                         1.725000       4.273566
                                                         0.586000       0.000000

                          7       3    3dx2              5.014000       0.000000
                                                         1.725000       0.000000
                                                         0.586000       0.645997
                          7       3    3dxy              5.014000       0.000000
                                                         1.725000       0.000000
                                                         0.586000       1.118899
                          7       3    3dxz              5.014000       0.000000
                                                         1.725000       0.000000
                                                         0.586000       1.118899
                          7       3    3dy2              5.014000       0.000000
                                                         1.725000       0.000000
                                                         0.586000       0.645997
                          7       3    3dyz              5.014000       0.000000
                                                         1.725000       0.000000
                                                         0.586000       1.118899
                          7       3    3dz2              5.014000       0.000000
                                                         1.725000       0.000000
                                                         0.586000       0.645997

                          8       1    1gx4              0.924000       0.895434
                          8       1    1gx3y             0.924000       2.369094
                          8       1    1gx3z             0.924000       2.369094
                          8       1    1gx2y2            0.924000       3.058488
                          8       1    1gx2yz            0.924000       5.297456
                          8       1    1gx2z2            0.924000       3.058488
                          8       1    1gxy3             0.924000       2.369094
                          8       1    1gxy2z            0.924000       5.297456
                          8       1    1gxyz2            0.924000       5.297456
                          8       1    1gxz3             0.924000       2.369094
                          8       1    1gy4              0.924000       0.895434
                          8       1    1gy3z             0.924000       2.369094
                          8       1    1gy2z2            0.924000       3.058488
                          8       1    1gyz3             0.924000       2.369094
                          8       1    1gz4              0.924000       0.895434

                          9       1    1fx3              3.562000      25.660538
                                                         1.148000       0.000000
                          9       1    1fx2y             3.562000      57.378707
                                                         1.148000       0.000000
                          9       1    1fx2z             3.562000      57.378707
                                                         1.148000       0.000000
                          9       1    1fxy2             3.562000      57.378707
                                                         1.148000       0.000000
                          9       1    1fxyz             3.562000      99.382837
                                                         1.148000       0.000000
                          9       1    1fxz2             3.562000      57.378707
                                                         1.148000       0.000000
                          9       1    1fy3              3.562000      25.660538
                                                         1.148000       0.000000
                          9       1    1fy2z             3.562000      57.378707
                                                         1.148000       0.000000
                          9       1    1fyz2             3.562000      57.378707
                                                         1.148000       0.000000
                          9       1    1fz3              3.562000      25.660538
                                                         1.148000       0.000000

                          9       2    2fx3              3.562000       0.000000
                                                         1.148000       2.008277
                          9       2    2fx2y             3.562000       0.000000
                                                         1.148000       4.490645
                          9       2    2fx2z             3.562000       0.000000
                                                         1.148000       4.490645
                          9       2    2fxy2             3.562000       0.000000
                                                         1.148000       4.490645
                          9       2    2fxyz             3.562000       0.000000
                                                         1.148000       7.778025
                          9       2    2fxz2             3.562000       0.000000
                                                         1.148000       4.490645
                          9       2    2fy3              3.562000       0.000000
                                                         1.148000       2.008277
                          9       2    2fy2z             3.562000       0.000000
                                                         1.148000       4.490645
                          9       2    2fyz2             3.562000       0.000000
                                                         1.148000       4.490645
                          9       2    2fz3              3.562000       0.000000
                                                         1.148000       2.008277

                         10       1    1gx4              2.376000      12.023008
                         10       1    1gx3y             2.376000      31.809888
                         10       1    1gx3z             2.376000      31.809888
                         10       1    1gx2y2            2.376000      41.066389
                         10       1    1gx2yz            2.376000      71.129073
                         10       1    1gx2z2            2.376000      41.066389
                         10       1    1gxy3             2.376000      31.809888
                         10       1    1gxy2z            2.376000      71.129073
                         10       1    1gxyz2            2.376000      71.129073
                         10       1    1gxz3             2.376000      31.809888
                         10       1    1gy4              2.376000      12.023008
                         10       1    1gy3z             2.376000      31.809888
                         10       1    1gy2z2            2.376000      41.066389
                         10       1    1gyz3             2.376000      31.809888
                         10       1    1gz4              2.376000      12.023008

     RI Auxiliary Basis Set                                    aug-cc-pVQZ-OPTRI

       Number of orbital shell sets:                                          19
       Number of orbital shells:                                              19
       Number of primitive Cartesian functions:                               19
       Number of Cartesian basis functions:                                  124
       Number of spherical basis functions:                                   89
       Norm type:                                                              2

       Normalised Cartesian orbitals:

                        Set   Shell   Orbital            Exponent    Coefficient

                          1       1    1s                0.136770       0.160289

                          2       1    1px               0.139128       0.121118
                          2       1    1py               0.139128       0.121118
                          2       1    1pz               0.139128       0.121118

                          3       1    1dx2              0.318344       0.222064
                          3       1    1dxy              0.318344       0.384627
                          3       1    1dxz              0.318344       0.384627
                          3       1    1dy2              0.318344       0.222064
                          3       1    1dyz              0.318344       0.384627
                          3       1    1dz2              0.318344       0.222064

                          4       1    1px               0.381891       0.427922
                          4       1    1py               0.381891       0.427922
                          4       1    1pz               0.381891       0.427922

                          5       1    1s                0.413887       0.367766

                          6       1    1fx3              0.743064       0.754681
                          6       1    1fx2y             0.743064       1.687518
                          6       1    1fx2z             0.743064       1.687518
                          6       1    1fxy2             0.743064       1.687518
                          6       1    1fxyz             0.743064       2.922867
                          6       1    1fxz2             0.743064       1.687518
                          6       1    1fy3              0.743064       0.754681
                          6       1    1fy2z             0.743064       1.687518
                          6       1    1fyz2             0.743064       1.687518
                          6       1    1fz3              0.743064       0.754681

                          7       1    1dx2              0.997436       1.638545
                          7       1    1dxy              0.997436       2.838043
                          7       1    1dxz              0.997436       2.838043
                          7       1    1dy2              0.997436       1.638545
                          7       1    1dyz              0.997436       2.838043
                          7       1    1dz2              0.997436       1.638545

                          8       1    1px               1.002245       1.429412
                          8       1    1py               1.002245       1.429412
                          8       1    1pz               1.002245       1.429412

                          9       1    1s                1.232046       0.833451

                         10       1    1gx4              1.384231       2.721191
                         10       1    1gx3y             1.384231       7.199594
                         10       1    1gx3z             1.384231       7.199594
                         10       1    1gx2y2            1.384231       9.294636
                         10       1    1gx2yz            1.384231      16.098782
                         10       1    1gx2z2            1.384231       9.294636
                         10       1    1gxy3             1.384231       7.199594
                         10       1    1gxy2z            1.384231      16.098782
                         10       1    1gxyz2            1.384231      16.098782
                         10       1    1gxz3             1.384231       7.199594
                         10       1    1gy4              1.384231       2.721191
                         10       1    1gy3z             1.384231       7.199594
                         10       1    1gy2z2            1.384231       9.294636
                         10       1    1gyz3             1.384231       7.199594
                         10       1    1gz4              1.384231       2.721191

                         11       1    1fx3              1.712357       4.937893
                         11       1    1fx2y             1.712357      11.041464
                         11       1    1fx2z             1.712357      11.041464
                         11       1    1fxy2             1.712357      11.041464
                         11       1    1fxyz             1.712357      19.124376
                         11       1    1fxz2             1.712357      11.041464
                         11       1    1fy3              1.712357       4.937893
                         11       1    1fy2z             1.712357      11.041464
                         11       1    1fyz2             1.712357      11.041464
                         11       1    1fz3              1.712357       4.937893

                         12       1    1hx5              2.682058      18.317479
                         12       1    1hx4y             2.682058      54.952437
                         12       1    1hx4z             2.682058      54.952437
                         12       1    1hx3y2            2.682058      83.941234
                         12       1    1hx3yz            2.682058     145.390483
                         12       1    1hx3z2            2.682058      83.941234
                         12       1    1hx2y3            2.682058      83.941234
                         12       1    1hx2y2z           2.682058     187.698306
                         12       1    1hx2yz2           2.682058     187.698306
                         12       1    1hx2z3            2.682058      83.941234
                         12       1    1hxy4             2.682058      54.952437
                         12       1    1hxy3z            2.682058     145.390483
                         12       1    1hxy2z2           2.682058     187.698306
                         12       1    1hxyz3            2.682058     145.390483
                         12       1    1hxz4             2.682058      54.952437
                         12       1    1hy5              2.682058      18.317479
                         12       1    1hy4z             2.682058      54.952437
                         12       1    1hy3z2            2.682058      83.941234
                         12       1    1hy2z3            2.682058      83.941234
                         12       1    1hyz4             2.682058      54.952437
                         12       1    1hz5              2.682058      18.317479

                         13       1    1dx2              3.320179      13.441325
                         13       1    1dxy              3.320179      23.281058
                         13       1    1dxz              3.320179      23.281058
                         13       1    1dy2              3.320179      13.441325
                         13       1    1dyz              3.320179      23.281058
                         13       1    1dz2              3.320179      13.441325

                         14       1    1px               3.338077       6.431474
                         14       1    1py               3.338077       6.431474
                         14       1    1pz               3.338077       6.431474

                         15       1    1s                4.177405       2.082524

                         16       1    1gx4              5.657813     130.682985
                         16       1    1gx3y             5.657813     345.754679
                         16       1    1gx3z             5.657813     345.754679
                         16       1    1gx2y2            5.657813     446.367371
                         16       1    1gx2yz            5.657813     773.130965
                         16       1    1gx2z2            5.657813     446.367371
                         16       1    1gxy3             5.657813     345.754679
                         16       1    1gxy2z            5.657813     773.130965
                         16       1    1gxyz2            5.657813     773.130965
                         16       1    1gxz3             5.657813     345.754679
                         16       1    1gy4              5.657813     130.682985
                         16       1    1gy3z             5.657813     345.754679
                         16       1    1gy2z2            5.657813     446.367371
                         16       1    1gyz3             5.657813     345.754679
                         16       1    1gz4              5.657813     130.682985

                         17       1    1fx3              8.647045     188.758630
                         17       1    1fx2y             8.647045     422.077129
                         17       1    1fx2z             8.647045     422.077129
                         17       1    1fxy2             8.647045     422.077129
                         17       1    1fxyz             8.647045     731.059032
                         17       1    1fxz2             8.647045     422.077129
                         17       1    1fy3              8.647045     188.758630
                         17       1    1fy2z             8.647045     422.077129
                         17       1    1fyz2             8.647045     422.077129
                         17       1    1fz3              8.647045     188.758630

                         18       1    1px               9.834670      24.825033
                         18       1    1py               9.834670      24.825033
                         18       1    1pz               9.834670      24.825033

                         19       1    1dx2             15.729866     204.492906
                         19       1    1dxy             15.729866     354.192103
                         19       1    1dxz             15.729866     354.192103
                         19       1    1dy2             15.729866     204.492906
                         19       1    1dyz             15.729866     354.192103
                         19       1    1dz2             15.729866     204.492906

       Atomic covalent radius [Angstrom]:                                  0.720

       Atomic van der Waals radius [Angstrom]:                             1.470

     The atoms of this atomic kind are PAW atoms (GAPW):
       Hard Gaussian function radius:                                      1.512
       Rho0 radius:                                                        1.512
       Maximum GTO radius used for PAW projector construction:            24.566

     GAPW Soft Basis Set                                        aug-cc-pVQZ_soft

       Number of orbital shell sets:                                          10
       Number of orbital shells:                                              20
       Number of primitive Cartesian functions:                               16
       Number of Cartesian basis functions:                                  105
       Number of spherical basis functions:                                   80
       Norm type:                                                              2

       Normalised Cartesian orbitals:

                        Set   Shell   Orbital            Exponent    Coefficient

                          1       1    1px               0.065680       0.047395
                          1       1    1py               0.065680       0.047395
                          1       1    1pz               0.065680       0.047395

                          2       1    1s                0.085940       0.113124

                          3       1    1dx2              0.207000       0.104558
                          3       1    1dxy              0.207000       0.181100
                          3       1    1dxz              0.207000       0.181100
                          3       1    1dy2              0.207000       0.104558
                          3       1    1dyz              0.207000       0.181100
                          3       1    1dz2              0.207000       0.104558

                          4       1    1px               1.953000       3.290924
                                                         0.670200       0.000000
                                                         0.216600       0.000000
                          4       1    1py               1.953000       3.290924
                                                         0.670200       0.000000
                                                         0.216600       0.000000
                          4       1    1pz               1.953000       3.290924
                                                         0.670200       0.000000
                                                         0.216600       0.000000

                          4       2    2px               1.953000       1.189876
                                                         0.670200       0.382202
                                                         0.216600       0.051274
                          4       2    2py               1.953000       1.189876
                                                         0.670200       0.382202
                                                         0.216600       0.051274
                          4       2    2pz               1.953000       1.189876
                                                         0.670200       0.382202
                                                         0.216600       0.051274

                          4       3    3px               1.953000       0.000000
                                                         0.670200       0.864362
                                                         0.216600       0.000000
                          4       3    3py               1.953000       0.000000
                                                         0.670200       0.864362
                                                         0.216600       0.000000
                          4       3    3pz               1.953000       0.000000
                                                         0.670200       0.864362
                                                         0.216600       0.000000

                          4       4    4px               1.953000       0.000000
                                                         0.670200       0.000000
                                                         0.216600       0.210627
                          4       4    4py               1.953000       0.000000
                                                         0.670200       0.000000
                                                         0.216600       0.210627
                          4       4    4pz               1.953000       0.000000
                                                         0.670200       0.000000
                                                         0.216600       0.210627

                          5       1    1s                1.843000       0.019335
                                                         0.712400      -0.001114
                                                         0.263700       0.000228

                          5       2    2s                1.843000       1.127338
                                                         0.712400       0.000000
                                                         0.263700       0.000000

                          5       3    3s                1.843000       0.000000
                                                         0.712400       0.552654
                                                         0.263700       0.000000

                          5       4    4s                1.843000       0.336804
                                                         0.712400       0.323309
                                                         0.263700       0.071116

                          5       5    5s                1.843000       0.000000
                                                         0.712400       0.000000
                                                         0.263700       0.262266

                          6       1    1fx3              0.460000       0.256543
                          6       1    1fx2y             0.460000       0.573647
                          6       1    1fx2z             0.460000       0.573647
                          6       1    1fxy2             0.460000       0.573647
                          6       1    1fxyz             0.460000       0.993585
                          6       1    1fxz2             0.460000       0.573647
                          6       1    1fy3              0.460000       0.256543
                          6       1    1fy2z             0.460000       0.573647
                          6       1    1fyz2             0.460000       0.573647
                          6       1    1fz3              0.460000       0.256543

                          7       1    1dx2              1.725000       0.000000
                                                         0.586000       0.000000
                          7       1    1dxy              1.725000       0.000000
                                                         0.586000       0.000000
                          7       1    1dxz              1.725000       0.000000
                                                         0.586000       0.000000
                          7       1    1dy2              1.725000       0.000000
                                                         0.586000       0.000000
                          7       1    1dyz              1.725000       0.000000
                                                         0.586000       0.000000
                          7       1    1dz2              1.725000       0.000000
                                                         0.586000       0.000000

                          7       2    2dx2              1.725000       4.273566
                                                         0.586000       0.000000
                          7       2    2dxy              1.725000       7.402033
                                                         0.586000       0.000000
                          7       2    2dxz              1.725000       7.402033
                                                         0.586000       0.000000
                          7       2    2dy2              1.725000       4.273566
                                                         0.586000       0.000000
                          7       2    2dyz              1.725000       7.402033
                                                         0.586000       0.000000
                          7       2    2dz2              1.725000       4.273566
                                                         0.586000       0.000000

                          7       3    3dx2              1.725000       0.000000
                                                         0.586000       0.645997
                          7       3    3dxy              1.725000       0.000000
                                                         0.586000       1.118899
                          7       3    3dxz              1.725000       0.000000
                                                         0.586000       1.118899
                          7       3    3dy2              1.725000       0.000000
                                                         0.586000       0.645997
                          7       3    3dyz              1.725000       0.000000
                                                         0.586000       1.118899
                          7       3    3dz2              1.725000       0.000000
                                                         0.586000       0.645997

                          8       1    1gx4              0.924000       0.895434
                          8       1    1gx3y             0.924000       2.369094
                          8       1    1gx3z             0.924000       2.369094
                          8       1    1gx2y2            0.924000       3.058488
                          8       1    1gx2yz            0.924000       5.297456
                          8       1    1gx2z2            0.924000       3.058488
                          8       1    1gxy3             0.924000       2.369094
                          8       1    1gxy2z            0.924000       5.297456
                          8       1    1gxyz2            0.924000       5.297456
                          8       1    1gxz3             0.924000       2.369094
                          8       1    1gy4              0.924000       0.895434
                          8       1    1gy3z             0.924000       2.369094
                          8       1    1gy2z2            0.924000       3.058488
                          8       1    1gyz3             0.924000       2.369094
                          8       1    1gz4              0.924000       0.895434

                          9       1    1fx3              3.562000      25.660538
                                                         1.148000       0.000000
                          9       1    1fx2y             3.562000      57.378707
                                                         1.148000       0.000000
                          9       1    1fx2z             3.562000      57.378707
                                                         1.148000       0.000000
                          9       1    1fxy2             3.562000      57.378707
                                                         1.148000       0.000000
                          9       1    1fxyz             3.562000      99.382837
                                                         1.148000       0.000000
                          9       1    1fxz2             3.562000      57.378707
                                                         1.148000       0.000000
                          9       1    1fy3              3.562000      25.660538
                                                         1.148000       0.000000
                          9       1    1fy2z             3.562000      57.378707
                                                         1.148000       0.000000
                          9       1    1fyz2             3.562000      57.378707
                                                         1.148000       0.000000
                          9       1    1fz3              3.562000      25.660538
                                                         1.148000       0.000000

                          9       2    2fx3              3.562000       0.000000
                                                         1.148000       2.008277
                          9       2    2fx2y             3.562000       0.000000
                                                         1.148000       4.490645
                          9       2    2fx2z             3.562000       0.000000
                                                         1.148000       4.490645
                          9       2    2fxy2             3.562000       0.000000
                                                         1.148000       4.490645
                          9       2    2fxyz             3.562000       0.000000
                                                         1.148000       7.778025
                          9       2    2fxz2             3.562000       0.000000
                                                         1.148000       4.490645
                          9       2    2fy3              3.562000       0.000000
                                                         1.148000       2.008277
                          9       2    2fy2z             3.562000       0.000000
                                                         1.148000       4.490645
                          9       2    2fyz2             3.562000       0.000000
                                                         1.148000       4.490645
                          9       2    2fz3              3.562000       0.000000
                                                         1.148000       2.008277

                         10       1    1gx4              2.376000      12.023008
                         10       1    1gx3y             2.376000      31.809888
                         10       1    1gx3z             2.376000      31.809888
                         10       1    1gx2y2            2.376000      41.066389
                         10       1    1gx2yz            2.376000      71.129073
                         10       1    1gx2z2            2.376000      41.066389
                         10       1    1gxy3             2.376000      31.809888
                         10       1    1gxy2z            2.376000      71.129073
                         10       1    1gxyz2            2.376000      71.129073
                         10       1    1gxz3             2.376000      31.809888
                         10       1    1gy4              2.376000      12.023008
                         10       1    1gy3z             2.376000      31.809888
                         10       1    1gy2z2            2.376000      41.066389
                         10       1    1gyz3             2.376000      31.809888
                         10       1    1gz4              2.376000      12.023008

     AE Potential information for                                            ALL

       Description:                                       All-electron potential
                                          Krack, Parrinello, PCCP 2, 2105 (2000)

       Gaussian exponent of the core charge distribution:              10.470541
       Electronic configuration (s p d ...):                           4   5   0

  2. Atomic kind: C                                     Number of atoms:       1

     Orbital Basis Set                                               aug-cc-pVQZ

       Number of orbital shell sets:                                          10
       Number of orbital shells:                                              20
       Number of primitive Cartesian functions:                               29
       Number of Cartesian basis functions:                                  105
       Number of spherical basis functions:                                   80
       Norm type:                                                              2

       Normalised Cartesian orbitals:

                        Set   Shell   Orbital            Exponent    Coefficient

                          1       1    1px               0.032180       0.019428
                          1       1    1py               0.032180       0.019428
                          1       1    1pz               0.032180       0.019428

                          2       1    1s                0.041450       0.065472

                          3       1    1dx2              0.076600       0.018357
                          3       1    1dxy              0.076600       0.031796
                          3       1    1dxz              0.076600       0.031796
                          3       1    1dy2              0.076600       0.018357
                          3       1    1dyz              0.076600       0.031796
                          3       1    1dz2              0.076600       0.018357

                          4       1    1px              34.510000       0.000000
                                                         7.915000       0.000000
                                                         2.368000       0.000000
                                                         0.813200       1.100745
                                                         0.289000       0.000000
                                                         0.100700       0.000000
                          4       1    1py              34.510000       0.000000
                                                         7.915000       0.000000
                                                         2.368000       0.000000
                                                         0.813200       1.100745
                                                         0.289000       0.000000
                                                         0.100700       0.000000
                          4       1    1pz              34.510000       0.000000
                                                         7.915000       0.000000
                                                         2.368000       0.000000
                                                         0.813200       1.100745
                                                         0.289000       0.000000
                                                         0.100700       0.000000

                          4       2    2px              34.510000       0.641198
                                                         7.915000       0.683747
                                                         2.368000       0.596637
                                                         0.813200       0.376620
                                                         0.289000       0.140105
                                                         0.100700       0.020217
                          4       2    2py              34.510000       0.641198
                                                         7.915000       0.683747
                                                         2.368000       0.596637
                                                         0.813200       0.376620
                                                         0.289000       0.140105
                                                         0.100700       0.020217
                          4       2    2pz              34.510000       0.641198
                                                         7.915000       0.683747
                                                         2.368000       0.596637
                                                         0.813200       0.376620
                                                         0.289000       0.140105
                                                         0.100700       0.020217

                          4       3    3px              34.510000       0.000000
                                                         7.915000       0.000000
                                                         2.368000       0.000000
                                                         0.813200       0.000000
                                                         0.289000       0.302039
                                                         0.100700       0.000000
                          4       3    3py              34.510000       0.000000
                                                         7.915000       0.000000
                                                         2.368000       0.000000
                                                         0.813200       0.000000
                                                         0.289000       0.302039
                                                         0.100700       0.000000
                          4       3    3pz              34.510000       0.000000
                                                         7.915000       0.000000
                                                         2.368000       0.000000
                                                         0.813200       0.000000
                                                         0.289000       0.302039
                                                         0.100700       0.000000

                          4       4    4px              34.510000       0.000000
                                                         7.915000       0.000000
                                                         2.368000       0.000000
                                                         0.813200       0.000000
                                                         0.289000       0.000000
                                                         0.100700       0.080859
                          4       4    4py              34.510000       0.000000
                                                         7.915000       0.000000
                                                         2.368000       0.000000
                                                         0.813200       0.000000
                                                         0.289000       0.000000
                                                         0.100700       0.080859
                          4       4    4pz              34.510000       0.000000
                                                         7.915000       0.000000
                                                         2.368000       0.000000
                                                         0.813200       0.000000
                                                         0.289000       0.000000
                                                         0.100700       0.080859

                          5       1    1s            33980.000000       0.162319
                                                      5089.000000       0.302313
                                                      1157.000000       0.522143
                                                       326.600000       0.841034
                                                       106.100000       1.247069
                                                        38.110000       1.607436
                                                        14.750000       1.639463
                                                         6.035000       1.095889
                                                         2.530000       0.310322
                                                         0.735500       0.008997
                                                         0.290500      -0.000870
                                                         0.111100       0.000134

                          5       2    2s            33980.000000       0.000000
                                                      5089.000000       0.000000
                                                      1157.000000       0.000000
                                                       326.600000       0.000000
                                                       106.100000       0.000000
                                                        38.110000       0.000000
                                                        14.750000       0.000000
                                                         6.035000       0.000000
                                                         2.530000       0.000000
                                                         0.735500       0.566040
                                                         0.290500       0.000000
                                                         0.111100       0.000000

                          5       3    3s            33980.000000       0.000000
                                                      5089.000000       0.000000
                                                      1157.000000       0.000000
                                                       326.600000       0.000000
                                                       106.100000       0.000000
                                                        38.110000       0.000000
                                                        14.750000       0.000000
                                                         6.035000       0.000000
                                                         2.530000       0.000000
                                                         0.735500       0.000000
                                                         0.290500       0.282013
                                                         0.111100       0.000000

                          5       4    4s            33980.000000      -0.033891
                                                      5089.000000      -0.064843
                                                      1157.000000      -0.110989
                                                       326.600000      -0.182005
                                                       106.100000      -0.271236
                                                        38.110000      -0.373428
                                                        14.750000      -0.413970
                                                         6.035000      -0.388287
                                                         2.530000      -0.168734
                                                         0.735500       0.154985
                                                         0.290500       0.165404
                                                         0.111100       0.039147

                          5       5    5s            33980.000000       0.000000
                                                      5089.000000       0.000000
                                                      1157.000000       0.000000
                                                       326.600000       0.000000
                                                       106.100000       0.000000
                                                        38.110000       0.000000
                                                        14.750000       0.000000
                                                         6.035000       0.000000
                                                         2.530000       0.000000
                                                         0.735500       0.000000
                                                         0.290500       0.000000
                                                         0.111100       0.137150

                          6       1    1fx3              0.187000       0.033853
                          6       1    1fx2y             0.187000       0.075698
                          6       1    1fx2z             0.187000       0.075698
                          6       1    1fxy2             0.187000       0.075698
                          6       1    1fxyz             0.187000       0.131112
                          6       1    1fxz2             0.187000       0.075698
                          6       1    1fy3              0.187000       0.033853
                          6       1    1fy2z             0.187000       0.075698
                          6       1    1fyz2             0.187000       0.075698
                          6       1    1fz3              0.187000       0.033853

                          7       1    1dx2              1.848000       4.821009
                                                         0.649000       0.000000
                                                         0.228000       0.000000
                          7       1    1dxy              1.848000       8.350232
                                                         0.649000       0.000000
                                                         0.228000       0.000000
                          7       1    1dxz              1.848000       8.350232
                                                         0.649000       0.000000
                                                         0.228000       0.000000
                          7       1    1dy2              1.848000       4.821009
                                                         0.649000       0.000000
                                                         0.228000       0.000000
                          7       1    1dyz              1.848000       8.350232
                                                         0.649000       0.000000
                                                         0.228000       0.000000
                          7       1    1dz2              1.848000       4.821009
                                                         0.649000       0.000000
                                                         0.228000       0.000000

                          7       2    2dx2              1.848000       0.000000
                                                         0.649000       0.772392
                                                         0.228000       0.000000
                          7       2    2dxy              1.848000       0.000000
[...]

 R. L. Martin.
 J. Chem. Phys. 118, 4775-4777 (2003).
 Natural transition orbitals.
 https://doi.org/10.1063/1.1558471

 M. Krack, M. Parrinello.
 Phys. Chem. Chem. Phys. 2, 2105-2112 (2000).
 All-electron ab-initio molecular dynamics.
 https://doi.org/10.1039/b001167n

 G. Lippert, J. Hutter, M. Parrinello.
 Theor. Chem. Acc. 103, 124-140 (1999).
 The Gaussian and augmented-plane-wave density functional method for ab initio 
 molecular dynamics simulations.
 https://doi.org/10.1007/s002140050523

 J. P. Perdew, K. Burke, M. Ernzerhof.
 Phys. Rev. Lett. 77, 3865-3868 (1996).
 Generalized gradient approximation made simple.
 https://doi.org/10.1103/PhysRevLett.77.3865


 -------------------------------------------------------------------------------
 -                                                                             -
 -                                T I M I N G                                  -
 -                                                                             -
 -------------------------------------------------------------------------------
 SUBROUTINE                       CALLS  ASD         SELF TIME        TOTAL TIME
                                MAXIMUM       AVERAGE  MAXIMUM  AVERAGE  MAXIMUM
 CP2K                                 1  1.0    0.031    0.048  628.424  628.424
 qs_energies                          1  2.0    0.000    0.001  627.109  627.109
 qs_energies_properties               1  3.0    0.000    0.000  434.596  434.596
 tddfpt                               1  4.0    0.000    0.000  434.596  434.596
 tddfpt_energies                      1  5.0    0.000    0.001  434.556  434.556
 tddfpt_davidson_solver               1  6.0    0.002    0.003  432.065  432.065
 tddfpt_compute_Aop_evects           10  7.0    0.000    0.000  429.514  429.514
 fhxc_kernel                         10  8.0    0.010    0.011  332.786  332.786
 scf_env_do_scf                       1  3.0    0.000    0.000  191.113  191.117
 scf_env_do_scf_inner_loop           65  4.0    0.002    0.005  191.113  191.117
 fft_wrap_pw1pw2                   5379 11.1    0.110    0.160  174.098  178.706
 fft_wrap_pw1pw2_250               3783 12.2    6.551    7.974  167.750  171.639
 integrate_four_center              465  9.9    9.199   20.498  161.564  161.727
 qs_ks_update_qs_env                 65  5.0    0.000    0.001  158.567  158.617
 rebuild_ks_matrix                   65  6.0    0.000    0.000  158.555  158.606
 qs_ks_build_kohn_sham_matrix        65  7.0    0.010    0.011  158.555  158.606
 fft3d_ps                          5379 13.1   58.436   73.402  145.868  151.256
 pw_poisson_solve                   265  9.5    3.387    4.218  143.924  144.886
 tddfpt_apply_coulomb               200  9.0    0.004    0.006  134.562  135.659
 mp_sync                           2449 11.5   80.655  126.540   80.655  126.540
 integrate_four_center_main         465 10.9    0.372    2.856   36.991  123.714
 integrate_four_center_bin        40572 11.9   36.619  121.856   36.619  121.856
 tddfpt_apply_hfx                    10  8.0    0.004    0.004   95.657   95.657
 tddft_hfx_matrix                   400  9.0    0.010    0.011   92.795   92.929
 ps_wavelet_solve                   265 10.5   59.679   68.763   85.702   86.714
 mp_alltoall_z22v                  5379 15.1   76.094   83.383   76.094   83.383
 xc_pw_derive                      1593 11.0    0.018    0.021   72.365   73.183
 qs_rho_update_rho_low              267  8.0    0.003    0.003   72.220   72.227
 calculate_rho_elec                 267  9.0    1.299    1.540   70.595   70.602
 hfx_ks_matrix                       65  8.0    0.002    0.003   68.783   68.828
 tddfpt_apply_xc_analytic           200  9.0    0.284    0.384   67.540   68.422
 mp_alltoall_d54                    265 11.5   12.810   61.175   12.810   61.175
 integrate_v_rspace                 265  9.0    0.006    0.009   55.879   56.369
 density_rs2pw                      267 10.0    0.017    0.019   48.395   52.422
 xc_pw_divergence                   265 10.8    0.011    0.014   48.970   49.816
 x_to_yz                           2454 13.8    6.761    7.859   46.352   48.905
 yz_to_x                           2393 14.5    4.147    4.897   40.595   45.089
 prepare_gapw_den                   266  8.7    0.005    0.007   40.495   40.823
 xc_calc_2nd_deriv_analytical       600 10.1    2.385    2.503   39.929   40.046
 potential_pw2rs                    265 10.0    0.091    0.100   38.866   39.339
 mp_alltoall_d11v                 17400 11.7   29.087   36.748   29.087   36.748
 transfer_rs2pw                    1335 10.9    0.038    0.055   30.584   34.081
 transfer_pw2rs                    1326 10.9    0.020    0.024   31.322   31.797
 mp_waitany                       47910 12.9   24.243   28.243   24.243   28.243
 grid_collocate_task_list           267 10.0   19.616   26.365   19.616   26.365
 qs_vxc_create                       65  8.0    0.001    0.001   23.996   23.999
 xc_vxc_pw_create                    65  9.0    0.397    0.477   23.996   23.998
 calc_screening_functions             1 10.0   19.953   21.262   21.801   23.147
 transfer_rs2pw_250                 534 11.9    6.568    7.217   19.172   22.853
 put_rho0_on_grid                   266  9.7    1.319    1.613   22.196   22.524
 transfer_pw2rs_250                 531 11.7    6.502    7.318   17.837   18.568
 mp_alltoall_d45                    266 11.5   12.663   18.026   12.663   18.026
 rs_gather_matrices                 265 10.0    0.026    0.038   15.478   17.041
 integrate_vhg0_rspace              265  9.5    1.390    1.486   16.393   16.826
 grid_integrate_task_list           265 10.0    1.528   16.674    1.528   16.674
 calculate_rho_atom                 532  9.7    5.312   15.834    5.312   15.834
 mp_waitall_1                    309534 13.5   12.369   14.978   12.369   14.978
 gaVxcgb_GC                         265  9.8    0.694   13.464    0.694   13.464
 sum_up_and_integrate                65  8.0    0.001    0.001   13.092   13.128
 calculate_xc_2nd_deriv_atom        200  9.0    0.118    1.819    0.673   12.221
 xc_rho_set_and_dset_create          66 10.0    0.294    0.350   10.923   11.925
 mp_sum_dv                        28445  8.9   10.850   11.626   10.850   11.626
 gspace_mixing                       64  5.0    0.311    0.369   11.589   11.590
 mp_sum_d                          6324  7.6    8.261    9.846    8.261    9.846
 pw_scatter_p                      2719 12.8    8.836    9.048    8.836    9.048
 pw_gather_p                       2660 13.5    7.970    8.965    7.970    8.965
 broyden_mixing                      64  6.0    8.329    8.548    8.497    8.610
 transfer_pw2rs_30                  265 12.0    4.521    5.082    7.533    7.912
 pw_derive                         2388 11.8    7.033    7.571    7.033    7.571
 cp_dbcsr_sm_fm_multiply           1246  8.6    0.025    0.028    6.455    6.602
 cp2k_distribution_to_z_slices      265 10.5    2.547    2.748    5.910    6.314
 fft_wrap_pw1pw2_90                 532 12.0    0.181    0.331    4.797    6.173
 mp_isendrecv_dv                 138700 12.3    2.401    6.036    2.401    6.036
 transfer_rs2pw_30                  267 12.0    2.525    2.651    5.919    5.996
 mp_sum_dm                         4097 10.1    5.156    5.589    5.156    5.589
 integrate_four_center_getP         465 10.9    0.149    0.170    5.272    5.310
 transfer_pw2rs_90                  265 12.0    1.081    1.263    4.597    5.298
 rs_grid_zero                      1328 11.9    4.920    5.189    4.920    5.189
 integrate_four_center_dist_KS      465 10.9    0.143    0.158    5.078    5.100
 transfer_rs2pw_90                  267 12.0    1.022    1.203    4.231    4.715
 pw_copy                           3580 11.0    4.053    4.299    4.053    4.299
 mp_sendrecv_dv                   50730 13.0    4.154    4.270    4.154    4.270
 pw_poisson_set                     266 10.5    0.009    0.011    4.100    4.159
 dbcsr_complete_redistribute       4112 10.5    0.167    0.300    3.752    3.890
 cp_fm_syevd                        117  7.2    0.001    0.001    3.694    3.701
 calculate_vxc_atom                  65  8.0    0.033    0.301    3.630    3.634
 cp_fm_redistribute_end             117  8.2    1.825    3.576    1.831    3.581
 cp_fm_syevd_base                   117  8.2    1.745    3.496    1.745    3.496
 pw_copy_to_array                  2660 13.5    2.781    3.445    2.781    3.445
 dbcsr_multiply_generic            1711 10.4    0.074    0.081    3.029    3.419
 qs_scf_new_mos                      65  5.0    0.001    0.001    3.300    3.322
 powell_optimize                1249877 11.0    3.105    3.182    3.105    3.182
 pw_axpy                           2858 10.9    2.744    3.050    2.744    3.050
 copy_dbcsr_to_fm                  1333  9.4    0.017    0.018    2.776    2.984
 eigensolver_symm                    65  6.0    0.002    0.003    2.772    2.776
 calculate_rho0_atom                532  9.7    2.635    2.768    2.635    2.768
 xc_functional_eval                 596 10.9    0.001    0.003    1.791    2.727
 pbe_lda_eval                       596 11.9    1.790    2.724    1.790    2.724
 pw_integral_ab_c1d_c1d_gs          265 10.5    1.939    1.960    2.326    2.703
 copy_fm_to_dbcsr                  2777  9.6    0.013    0.014    2.504    2.648
 cp_dbcsr_sm_fm_multiply_core      1246  9.6    0.003    0.004    2.154    2.522
 Vh_1c_gg_integrals                 265  9.5    0.108    1.578    2.118    2.372
 pw_zero                           2996 10.6    1.999    2.191    1.999    2.191
 multiply_cannon                   1711 11.4    0.164    0.172    1.776    2.185
 pw_copy_from_array                2719 12.8    1.759    2.163    1.759    2.163
 mp_sum_l                          6495 10.7    1.593    2.141    1.593    2.141
 calc_pair_dist_radii                 1 10.0    0.643    0.653    1.900    1.939
 mp_irecv_dm3                      9582 12.9    0.914    1.932    0.914    1.932
 integrate_four_center_load         465 10.9    0.001    0.002    1.381    1.923
 hfx_load_balance                     1 11.0    0.000    0.000    1.379    1.921
 hfx_load_balance_range               1 12.0    0.000    0.001    1.367    1.909
 mp_isend_dv                     115453 13.8    1.148    1.773    1.148    1.773
 multiply_cannon_loop              1711 12.4    0.264    0.281    1.272    1.658
 calculate_rho_atom_coeff           267  9.0    0.122    0.316    1.622    1.624
 tddfpt_print_nto_analysis            1  6.0    0.003    0.004    1.614    1.614
 mp_isend_dm3                      9582 12.9    0.798    1.589    0.798    1.589
 dbcsr_desymmetrize_deep           1334 10.4    0.025    0.035    1.374    1.583
 tddfpt_orthonormalize_psi1_psi      11  6.9    0.029    0.031    1.572    1.572
 transfer_pw2rs_10                  265 12.0    0.487    0.531    1.335    1.513
 mp_alltoall_i11v                 13670 11.5    1.465    1.467    1.465    1.467
 cp_dbcsr_plus_fm_fm_t              265  8.5    0.004    0.004    1.319    1.351
 mp_alltoall_i22                   5446 11.5    1.052    1.306    1.052    1.306
 transfer_rs2pw_10                  267 12.0    0.465    0.508    1.224    1.252
 cp_fm_geeig                         20  7.0    0.001    0.001    1.212    1.213
 fft_wrap_pw1pw2_30                 532 12.0    0.033    0.038    1.032    1.186
 mp_max_i                           718  5.3    0.838    1.105    0.838    1.105
 tddfpt_apply_energy_diff            10  8.0    0.001    0.001    1.071    1.071
 make_m2s                          3422 11.4    0.056    0.064    0.818    0.969
 tddfpt_compute_residual_vects        9  7.0    0.001    0.001    0.886    0.886
 offload_free_buffer                273 10.3    0.449    0.877    0.449    0.877
 qs_energies_init_hamiltonians        1  3.0    0.000    0.000    0.876    0.876
 create_qs_kind_set                   1  2.0    0.000    0.000    0.869    0.870
 read_qs_kind                         2  3.0    0.432    0.445    0.869    0.870
 build_core_hamiltonian_matrix        1  4.0    0.000    0.000    0.868    0.868
 overlap_condnum                      1  5.0    0.000    0.000    0.860    0.866
 prepare_dr1dr                      600 11.1    0.713    0.825    0.713    0.825
 pw_poisson_rebuild                 265 10.5    0.000    0.001    0.812    0.825
 ps_wavelet_create                    1 10.0    0.000    0.000    0.812    0.825
 RS_z_slice_distribution              1 11.0    0.676    0.765    0.812    0.825
 multiply_cannon_metrocomm3       41064 13.4    0.065    0.067    0.310    0.797
 make_images                       3422 12.4    0.142    0.181    0.658    0.790
 update_ks_atom                     265  8.8    0.091    0.311    0.561    0.781
 scale_and_distribute               530 11.5    0.686    0.780    0.686    0.780
 arnoldi_conjugate_gradient           5  6.0    0.017    0.020    0.760    0.760
 parallel_gemm_fm                  1817  8.3    0.002    0.003    0.730    0.748
 parallel_gemm_fm_gemm             1817  9.3    0.002    0.003    0.728    0.745
 cp_fm_gemm                        1817 10.3    0.725    0.743    0.725    0.743
 hybrid_alltoall_any               4756 13.5    0.036    0.088    0.549    0.649
 mp_bcast_dm                       2650  9.8    0.470    0.527    0.470    0.527
 multiply_cannon_metrocomm1       41064 13.4    0.045    0.047    0.210    0.517
 dbcsr_sym_matrix_vector_mult      2510  7.0    0.039    0.047    0.381    0.494
 cp_fm_trace_a1b1t1_aa            20310  8.0    0.098    0.104    0.447    0.451
 init_scf_run                         1  3.0    0.000    0.000    0.445    0.445
 tddfpt_construct_ground_state_       1  6.0    0.000    0.000    0.443    0.444
 parser_read_line                 91100  4.0    0.031    0.033    0.438    0.443
 fft_wrap_pw1pw2_10                 532 12.0    0.008    0.009    0.410    0.438
 parser_read_line_low               101  5.0    0.032    0.242    0.406    0.412
 broadcast_input_information        101  6.0    0.075    0.084    0.374    0.390
 scf_env_initial_rho_setup            1  4.0    0.000    0.000    0.389    0.390
 dbcsr_finalize                   11993 11.4    0.046    0.088    0.218    0.388
 qs_init_subsys                       1  2.0    0.013    0.016    0.356    0.356
 calculate_dm_sparse                 65  6.0    0.000    0.001    0.326    0.350
 qs_env_setup                         1  3.0    0.000    0.000    0.300    0.311
 qs_env_rebuild_pw_env                2  3.5    0.000    0.000    0.299    0.310
 pw_env_rebuild                       1  5.0    0.001    0.001    0.299    0.309
 multiply_cannon_metrocomm4       37642 13.4    0.111    0.118    0.220    0.300
 rs_scatter_matrices                267 10.0    0.003    0.009    0.277    0.297
 pw_scale                           660  9.5    0.241    0.289    0.241    0.289
 multiply_cannon_multrec          41064 13.4    0.064    0.278    0.071    0.285
 mp_alltoall_z11v                   532 15.0    0.248    0.273    0.248    0.273
 mp_allgather_i34                  1711 12.4    0.227    0.273    0.227    0.273
 pw_grid_setup                        4  6.0    0.000    0.000    0.258    0.268
 pw_grid_setup_internal               4  7.0    0.006    0.010    0.258    0.268
 make_images_sizes                 3422 13.4    0.004    0.004    0.246    0.268
 mp_alltoall_i44                   3422 14.4    0.242    0.264    0.242    0.264
 mp_cart_sub                       2669 11.4    0.258    0.261    0.258    0.261
 mp_irecv_dv                     114925 13.8    0.148    0.237    0.148    0.237
 mp_bcast_i_src                     404  7.0    0.200    0.227    0.200    0.227
 dbcsr_merge_all                   9964 12.4    0.097    0.148    0.125    0.226
 create_kernel_env                    1  6.0    0.000    0.000    0.201    0.226
 xc_prep_2nd_deriv                    1  7.0    0.000    0.000    0.201    0.226
 make_images_data                  3422 13.4    0.035    0.050    0.098    0.221
 dbcsr_add_d                       3815  7.0    0.004    0.004    0.034    0.221
 multiply_cannon_metrocomm2       35931 13.4    0.108    0.111    0.197    0.219
 dbcsr_add_anytype                 3815  8.0    0.005    0.028    0.031    0.217
 dbcsr_rep_row_to_rep_col_vec      2510  8.0    0.013    0.019    0.086    0.203
 mp_cart_create                    1868 10.9    0.186    0.200    0.188    0.202
 dbcsr_create_new                 45272 11.4    0.147    0.155    0.192    0.202
 rs_grid_create                     271 10.4    0.002    0.002    0.018    0.186
 xc_2nd_deriv_of_r                  400 10.0    0.002    0.034    0.009    0.184
 offload_create_buffer              273 11.4    0.017    0.184    0.017    0.184
 yz_to_xz                           265 14.0    0.015    0.017    0.154    0.178
 dbcsr_col_vec_to_rep_row          2510  8.0    0.018    0.024    0.097    0.169
 pw_grid_sort                         4  8.0    0.107    0.111    0.156    0.159
 dbcsr_special_finalize            8555 13.4    0.033    0.036    0.096    0.149
 cp_fm_triangular_multiply           60  8.0    0.147    0.148    0.147    0.148
 tddfpt_compute_ritz_vects           10  7.0    0.009    0.009    0.144    0.145
 mp_rank_compare                   5379 14.1    0.120    0.131    0.120    0.131
 cp_fm_redistribute_start           117  8.2    0.090    0.094    0.117    0.127
 cp_fm_cholesky_decompose            20  8.0    0.125    0.125    0.125    0.125
 cp_fm_triangular_invert             20  8.0    0.123    0.123    0.123    0.123
 xz_to_yz                           267 14.0    0.010    0.012    0.120    0.123
 dbcsr_iterator_start             58105 10.5    0.074    0.094    0.089    0.119
 mp_bcast_dv                       2627  9.0    0.046    0.115    0.046    0.115
 mp_bcast_am_src                    101  7.0    0.085    0.094    0.096    0.113
 dbcsr_copy                       14280  8.5    0.048    0.057    0.093    0.111
 cp_fm_symm                          65  7.0    0.102    0.108    0.102    0.108
 tddfpt_orthogonalize_psi1_psi0      11  6.9    0.000    0.001    0.091    0.107
 dbcsr_merge_single_wm             8555 14.4    0.042    0.054    0.052    0.102
 copy_fm_to_dbcsr_bc               2777 10.6    0.029    0.033    0.088    0.095
 dbcsr_sym_matrix_vector_mult_l    2510  8.0    0.015    0.081    0.023    0.088
 dbcsr_work_create                19853 12.5    0.039    0.053    0.060    0.086
 dbcsr_destroy                    40191 10.9    0.051    0.053    0.075    0.081
 mixing_init                          1  5.0    0.077    0.080    0.080    0.081
 dbcsr_iterator_stop              58105 10.5    0.051    0.066    0.063    0.079
 scf_post_calculation_gpw             1  3.0    0.000    0.000    0.078    0.078
 write_available_results              1  4.0    0.000    0.000    0.078    0.078
 write_mo_free_results                1  5.0    0.006    0.008    0.078    0.078
 dbcsr_data_release              218260 12.4    0.062    0.077    0.062    0.077
 dbcsr_data_new                  136648 12.6    0.063    0.076    0.063    0.076
 mp_isend_iv                      81728 14.3    0.061    0.070    0.061    0.070
 dbcsr_work_destroy_all           19853 13.4    0.035    0.048    0.048    0.068
 dbcsr_make_images_dense            930 11.7    0.016    0.018    0.045    0.067
 -------------------------------------------------------------------------------

 The number of warnings for this run is : 1
 
 -------------------------------------------------------------------------------
  **** **** ******  **  PROGRAM ENDED AT                 2025-04-14 03:43:10.163
 ***** ** ***  *** **   PROGRAM RAN ON                              i02r01c03s09
 **    ****   ******    PROGRAM RAN BY                                   di38fab
 ***** **    ** ** **   PROGRAM PROCESS ID                               2345675
  **** **  *******  **  PROGRAM STOPPED IN /hppfs/scratch/04/di38fab/05_MOL/W4-1
                                           1+ALK/cf4/aug-cc-pVQZ/TDDFT
