 DBCSR| CPU Multiplication driver                                           XSMM (U)
 DBCSR| Multrec recursion limit                                              512 (U)
 DBCSR| Multiplication stack size                                           1000 (D)
 DBCSR| Maximum elements for images                                    UNLIMITED (U)
 DBCSR| Multiplicative factor virtual images                                   1 (U)
 DBCSR| Use multiplication densification                                       T (D)
 DBCSR| Multiplication size stacks                                             3 (U)
 DBCSR| Use memory pool for CPU allocation                                     F (U)
 DBCSR| Number of 3D layers                                               SINGLE (U)
 DBCSR| Use MPI memory allocation                                              F (U)
 DBCSR| Use RMA algorithm                                                      F (U)
 DBCSR| Use Communication thread                                               T (U)
 DBCSR| Communication thread load                                             60 (D)
 DBCSR| MPI: My process id                                                     0
 DBCSR| MPI: Number of processes                                              80
 DBCSR| OMP: Current number of threads                                         8
 DBCSR| OMP: Max number of threads                                             8
 DBCSR| Split modifier for TAS multiplication algorithm                  1.0E+00 (U)


  **** **** ******  **  PROGRAM STARTED AT               2025-05-30 07:29:21.278
 ***** ** ***  *** **   PROGRAM STARTED ON                              n2cn0701
 **    ****   ******    PROGRAM STARTED BY                              metdyn02
 ***** **    ** ** **   PROGRAM PROCESS ID                               1876717
  **** **  *******  **  PROGRAM STARTED IN /scratch/hpc-prf-metdyn/metdyn02_Remi
                                           /10_MOL/05_MOL_low_scal/05_MOL/aUKBqs
                                           EOTmq69kFe5R_nOg/5k_set_final_qzvp/ZA
                                           PCIE/SZV/1e-4/5.0

 CP2K| version string:                 CP2K version 2025.1 (Development Version)
 CP2K| source code revision number:                                  git:32ddf85
 CP2K| cp2kflags: omp libint fftw3 libxc libgrpp elpa parallel scalapack mpi_f08
 CP2K|             cosma xsmm plumed2 spglib libvori libbqb libvdwxc hdf5
 CP2K| is freely available from                            https://www.cp2k.org/
 CP2K| Program compiled at                         Mon May 19 11:32:37 CEST 2025
 CP2K| Program compiled on                                              n2login1
 CP2K| Program compiled for                                                local
 CP2K| Data directory path    /opt/software/pc2/EB-SW/software/CP2K/2024.1-foss-
 CP2K| Input file name                                                    GW.inp

 GLOBAL| Force Environment number                                              1
 GLOBAL| Basis set file name            /scratch/hpc-prf-metdyn/metdyn02_Remi/BA
 GLOBAL| Potential file name            /pc2/groups/hpc-prf-metdyn/metdyn02_Remi
 GLOBAL| MM Potential file name                                     MM_POTENTIAL
 GLOBAL| Coordinate file name                                      __STD_INPUT__
 GLOBAL| Method name                                                        CP2K
 GLOBAL| Project name                                                       MoS2
 GLOBAL| Run type                                                         ENERGY
 GLOBAL| FFT library                                                       FFTW3
 GLOBAL| Diagonalization library                                            ELPA
 GLOBAL| Cholesky decomposition library                                ScaLAPACK
 GLOBAL| DGEMM library                                                      BLAS
 GLOBAL| Minimum number of eigenvectors for ELPA usage                        16
 GLOBAL| Orthonormality check for eigenvectors                          DISABLED
 GLOBAL| Matrix multiplication library                                     COSMA
 GLOBAL| All-to-all communication in single precision                          F
 GLOBAL| FFTs using library dependent lengths                                  F
 GLOBAL| Grid backend                                                       AUTO
 GLOBAL| Global print level                                               MEDIUM
 GLOBAL| MPI I/O enabled                                                       T
 GLOBAL| Total number of message passing processes                            80
 GLOBAL| Number of threads for this process                                    8
 GLOBAL| This output is from process                                           0
 GLOBAL| OpenMP stack size per thread (OMP_STACKSIZE)                    default
 GLOBAL| CPU model name                          AMD EPYC 7763 64-Core Processor
 GLOBAL| CPUID                                                              1002

 MEMORY| system memory details [Kb]
 MEMORY|                        rank 0           min           max       average
 MEMORY| MemTotal            263897620     263897544     263902132     263897815
 MEMORY| MemFree             245637736     243373272     252778108     248671789
 MEMORY| Buffers                 38704         11376        141372         72402
 MEMORY| Cached               12898716       6721008      15384968      10151161
 MEMORY| Slab                  2074004       1298772       2074004       1768896
 MEMORY| SReclaimable           581536        324456        614336        432800
 MEMORY| MemLikelyFree       259156692     259109360     259954792     259328153


 *** Fundamental physical constants (SI units) ***

 *** Literature: B. J. Mohr and B. N. Taylor,
 ***             CODATA recommended values of the fundamental physical
 ***             constants: 2006, Web Version 5.1
 ***             http://physics.nist.gov/constants

 Speed of light in vacuum [m/s]                             2.99792458000000E+08
 Magnetic constant or permeability of vacuum [N/A**2]       1.25663706143592E-06
 Electric constant or permittivity of vacuum [F/m]          8.85418781762039E-12
 Planck constant (h) [J*s]                                  6.62606896000000E-34
 Planck constant (h-bar) [J*s]                              1.05457162825177E-34
 Elementary charge [C]                                      1.60217648700000E-19
 Electron mass [kg]                                         9.10938215000000E-31
 Electron g factor [ ]                                     -2.00231930436220E+00
 Proton mass [kg]                                           1.67262163700000E-27
 Fine-structure constant                                    7.29735253760000E-03
 Rydberg constant [1/m]                                     1.09737315685270E+07
 Avogadro constant [1/mol]                                  6.02214179000000E+23
 Boltzmann constant [J/K]                                   1.38065040000000E-23
 Atomic mass unit [kg]                                      1.66053878200000E-27
 Bohr radius [m]                                            5.29177208590000E-11

 *** Conversion factors ***

 [u] -> [a.u.]                                              1.82288848426455E+03
 [Angstrom] -> [Bohr] = [a.u.]                              1.88972613288564E+00
 [a.u.] = [Bohr] -> [Angstrom]                              5.29177208590000E-01
 [a.u.] -> [s]                                              2.41888432650478E-17
 [a.u.] -> [fs]                                             2.41888432650478E-02
 [a.u.] -> [J]                                              4.35974393937059E-18
 [a.u.] -> [N]                                              8.23872205491840E-08
 [a.u.] -> [K]                                              3.15774647902944E+05
 [a.u.] -> [kJ/mol]                                         2.62549961709828E+03
 [a.u.] -> [kcal/mol]                                       6.27509468713739E+02
 [a.u.] -> [Pa]                                             2.94210107994716E+13
 [a.u.] -> [bar]                                            2.94210107994716E+08
 [a.u.] -> [atm]                                            2.90362800883016E+08
 [a.u.] -> [eV]                                             2.72113838565563E+01
 [a.u.] -> [Hz]                                             6.57968392072181E+15
 [a.u.] -> [1/cm] (wave numbers)                            2.19474631370540E+05
 [a.u./Bohr**2] -> [1/cm]                                   5.14048714338585E+03
 

 CELL_TOP| Volume [angstrom^3]:                                     27000.000000
 CELL_TOP| Vector a [angstrom    30.000     0.000     0.000   |a| =    30.000000
 CELL_TOP| Vector b [angstrom     0.000    30.000     0.000   |b| =    30.000000
 CELL_TOP| Vector c [angstrom     0.000     0.000    30.000   |c| =    30.000000
 CELL_TOP| Angle (b,c), alpha [degree]:                                90.000000
 CELL_TOP| Angle (a,c), beta  [degree]:                                90.000000
 CELL_TOP| Angle (a,b), gamma [degree]:                                90.000000
 CELL_TOP| Numerically orthorhombic:                                         YES
 CELL_TOP| Periodicity                                                      NONE

 GENERATE|  Preliminary Number of Bonds generated:                             0
 GENERATE|  Achieved consistency in connectivity generation.

 CELL| Volume [angstrom^3]:                                         27000.000000
 CELL| Vector a [angstrom]:      30.000     0.000     0.000   |a| =    30.000000
 CELL| Vector b [angstrom]:       0.000    30.000     0.000   |b| =    30.000000
 CELL| Vector c [angstrom]:       0.000     0.000    30.000   |c| =    30.000000
 CELL| Angle (b,c), alpha [degree]:                                    90.000000
 CELL| Angle (a,c), beta  [degree]:                                    90.000000
 CELL| Angle (a,b), gamma [degree]:                                    90.000000
 CELL| Numerically orthorhombic:                                             YES
 CELL| Periodicity                                                          NONE

 CELL_REF| Volume [angstrom^3]:                                     27000.000000
 CELL_REF| Vector a [angstrom    30.000     0.000     0.000   |a| =    30.000000
 CELL_REF| Vector b [angstrom     0.000    30.000     0.000   |b| =    30.000000
 CELL_REF| Vector c [angstrom     0.000     0.000    30.000   |c| =    30.000000
 CELL_REF| Angle (b,c), alpha [degree]:                                90.000000
 CELL_REF| Angle (a,c), beta  [degree]:                                90.000000
 CELL_REF| Angle (a,b), gamma [degree]:                                90.000000
 CELL_REF| Numerically orthorhombic:                                         YES
 CELL_REF| Periodicity                                                      NONE

 *******************************************************************************
 *******************************************************************************
 **                                                                           **
 **     #####                         ##              ##                      **
 **    ##   ##            ##          ##              ##                      **
 **   ##     ##                       ##            ######                    **
 **   ##     ##  ##   ##  ##   #####  ##  ##   ####   ##    #####    #####    **
 **   ##     ##  ##   ##  ##  ##      ## ##   ##      ##   ##   ##  ##   ##   **
 **   ##  ## ##  ##   ##  ##  ##      ####     ###    ##   ######   ######    **
 **    ##  ###   ##   ##  ##  ##      ## ##      ##   ##   ##       ##        **
 **     #######   #####   ##   #####  ##  ##  ####    ##    #####   ##        **
 **           ##                                                    ##        **
 **                                                                           **
 **                                                ... make the atoms dance   **
 **                                                                           **
 **            Copyright (C) by CP2K developers group (2000-2025)             **
 **                      J. Chem. Phys. 152, 194103 (2020)                    **
 **                                                                           **
 *******************************************************************************

 DFT| Spin restricted Kohn-Sham (RKS) calculation                            RKS
 DFT| Multiplicity                                                             1
 DFT| Number of spin states                                                    1
 DFT| Charge                                                                   0
 DFT| Self-interaction correction (SIC)                                       NO
 DFT| Cutoffs: density                                              1.000000E-10
 DFT|          gradient                                             1.000000E-10
 DFT|          tau                                                  1.000000E-10
 DFT|          cutoff_smoothing_range                               0.000000E+00
 DFT| XC density smoothing                                                  NONE
 DFT| XC derivatives                                                          PW

 FUNCTIONAL| PBE:
 FUNCTIONAL| J.P.Perdew, K.Burke, M.Ernzerhof, Phys. Rev. Letter, vol. 77, n 18,
 FUNCTIONAL|  pp. 3865-3868, (1996)sx=0.750sc=1.000{spin unpolarized}           


 QS| Method:                                                                GAPW
 QS| Density plane wave grid type                        NON-SPHERICAL FULLSPACE
 QS| Number of grid levels:                                                    4
 QS| Density cutoff [a.u.]:                                                250.0
 QS| Multi grid cutoff [a.u.]: 1) grid level                               250.0
 QS|                           2) grid level                                83.3
 QS|                           3) grid level                                27.8
 QS|                           4) grid level                                 9.3
 QS| Grid level progression factor:                                          3.0
 QS| Relative density cutoff [a.u.]:                                        50.0
 QS| Interaction thresholds: eps_pgf_orb:                                1.0E-12
 QS|                         eps_filter_matrix:                          0.0E+00
 QS|                         eps_core_charge:                            1.0E-14
 QS|                         eps_rho_gspace:                             1.0E-12
 QS|                         eps_rho_rspace:                             1.0E-12
 QS|                         eps_gvg_rspace:                             1.0E-06
 QS|                         eps_ppl:                                    1.0E-02
 QS|                         eps_ppnl:                                   1.0E-08
 QS| GAPW|      One center basis from orbital basis primitives
 QS| GAPW|                   eps_fit:                                    1.0E-04
 QS| GAPW|                   eps_iso:                                    1.0E-12
 QS| GAPW|                   eps_svd:                                    1.0E-08
 QS| GAPW|                   eps_cpc:                                    1.0E-12
 QS| GAPW|   atom-r-grid: quadrature:                                     GC_LOG
 QS| GAPW|      atom-s-grid:  max l :                                          4
 QS| GAPW|      max_l_rho0 :                                                   2


 ATOMIC KIND INFORMATION

  1. Atomic kind: C                                     Number of atoms:       8

     Orbital Basis Set                                         aug-SZV-MOLOPT-ae

       Number of orbital shell sets:                                           2
       Number of orbital shells:                                               6
       Number of primitive Cartesian functions:                               13
       Number of Cartesian basis functions:                                   15
       Number of spherical basis functions:                                   14
       Norm type:                                                              2

       Normalised Cartesian orbitals:

                        Set   Shell   Orbital            Exponent    Coefficient

                          1       1    2s                0.070000       0.000000
                                                         0.143687       0.040037
                                                         0.313471       0.177689
                                                         0.721783       0.139661
                                                         1.876046      -0.038599
                                                         6.036200      -0.128975
                                                        30.497239      -0.122578

                          1       2    3s                0.070000      -0.142268
                                                         0.143687       0.288819
                                                         0.313471       0.010360
                                                         0.721783       0.175994
                                                         1.876046       0.000000
                                                         6.036200       0.000000
                                                        30.497239       0.000000

                          1       3    3px               0.070000       0.000000
                                                         0.143687       0.012825
                                                         0.313471       0.142381
                                                         0.721783       0.396426
                                                         1.876046       0.544234
                                                         6.036200       0.508157
                                                        30.497239       0.384077
                          1       3    3py               0.070000       0.000000
                                                         0.143687       0.012825
                                                         0.313471       0.142381
                                                         0.721783       0.396426
                                                         1.876046       0.544234
                                                         6.036200       0.508157
                                                        30.497239       0.384077
                          1       3    3pz               0.070000       0.000000
                                                         0.143687       0.012825
                                                         0.313471       0.142381
                                                         0.721783       0.396426
                                                         1.876046       0.544234
                                                         6.036200       0.508157
                                                        30.497239       0.384077

                          1       4    4px               0.070000       0.076505
                                                         0.143687      -0.086104
                                                         0.313471       0.010230
                                                         0.721783       0.129894
                                                         1.876046       0.000000
                                                         6.036200       0.000000
                                                        30.497239       0.000000
                          1       4    4py               0.070000       0.076505
                                                         0.143687      -0.086104
                                                         0.313471       0.010230
                                                         0.721783       0.129894
                                                         1.876046       0.000000
                                                         6.036200       0.000000
                                                        30.497239       0.000000
                          1       4    4pz               0.070000       0.076505
                                                         0.143687      -0.086104
                                                         0.313471       0.010230
                                                         0.721783       0.129894
                                                         1.876046       0.000000
                                                         6.036200       0.000000
                                                        30.497239       0.000000

                          1       5    4dx2              0.070000       0.004316
                                                         0.143687       0.012639
                                                         0.313471       0.125057
                                                         0.721783       0.080411
                                                         1.876046       0.000000
                                                         6.036200       0.000000
                                                        30.497239       0.000000
                          1       5    4dxy              0.070000       0.007476
                                                         0.143687       0.021892
                                                         0.313471       0.216606
                                                         0.721783       0.139276
                                                         1.876046       0.000000
                                                         6.036200       0.000000
                                                        30.497239       0.000000
                          1       5    4dxz              0.070000       0.007476
                                                         0.143687       0.021892
                                                         0.313471       0.216606
                                                         0.721783       0.139276
                                                         1.876046       0.000000
                                                         6.036200       0.000000
                                                        30.497239       0.000000
                          1       5    4dy2              0.070000       0.004316
                                                         0.143687       0.012639
                                                         0.313471       0.125057
                                                         0.721783       0.080411
                                                         1.876046       0.000000
                                                         6.036200       0.000000
                                                        30.497239       0.000000
                          1       5    4dyz              0.070000       0.007476
                                                         0.143687       0.021892
                                                         0.313471       0.216606
                                                         0.721783       0.139276
                                                         1.876046       0.000000
                                                         6.036200       0.000000
                                                        30.497239       0.000000
                          1       5    4dz2              0.070000       0.004316
                                                         0.143687       0.012639
                                                         0.313471       0.125057
                                                         0.721783       0.080411
                                                         1.876046       0.000000
                                                         6.036200       0.000000
                                                        30.497239       0.000000

                          2       1    1s              742.737049       0.929185
                                                       136.180025       1.402437
                                                        38.098264       1.841991
                                                        13.087782       1.817278
                                                         5.082369       1.004768
                                                         2.093200       0.161650

     RI Auxiliary Basis Set             RI_aug-SZV-MOLOPT-ae_N_RI_048_s_p_d_f_g_

       Number of orbital shell sets:                                          14
       Number of orbital shells:                                              14
       Number of primitive Cartesian functions:                               14
       Number of Cartesian basis functions:                                   62
       Number of spherical basis functions:                                   48
       Norm type:                                                              2

       Normalised Cartesian orbitals:

                        Set   Shell   Orbital            Exponent    Coefficient

                          1       1    1s                0.182132       0.198701

                          2       1    7px               0.213594       0.206979
                          2       1    7py               0.213594       0.206979
                          2       1    7pz               0.213594       0.206979

                          3       1   10dx2              0.381125       0.304282
                          3       1   10dxy              0.381125       0.527033
                          3       1   10dxz              0.381125       0.527033
                          3       1   10dy2              0.381125       0.304282
                          3       1   10dyz              0.381125       0.527033
                          3       1   10dz2              0.381125       0.304282

                          4       1    2s                0.433905       0.381027

                          5       1   12fx3              0.524446       0.344573
                          5       1   12fx2y             0.524446       0.770488
                          5       1   12fx2z             0.524446       0.770488
                          5       1   12fxy2             0.524446       0.770488
                          5       1   12fxyz             0.524446       1.334524
                          5       1   12fxz2             0.524446       0.770488
                          5       1   12fy3              0.524446       0.344573
                          5       1   12fy2z             0.524446       0.770488
                          5       1   12fyz2             0.524446       0.770488
                          5       1   12fz3              0.524446       0.344573

                          6       1    8px               0.915857       1.277099
                          6       1    8py               0.915857       1.277099
                          6       1    8pz               0.915857       1.277099

                          7       1   14gx4              1.217666       1.912659
                          7       1   14gx3y             1.217666       5.060419
                          7       1   14gx3z             1.217666       5.060419
                          7       1   14gx2y2            1.217666       6.532973
                          7       1   14gx2yz            1.217666      11.315442
                          7       1   14gx2z2            1.217666       6.532973
                          7       1   14gxy3             1.217666       5.060419
                          7       1   14gxy2z            1.217666      11.315442
                          7       1   14gxyz2            1.217666      11.315442
                          7       1   14gxz3             1.217666       5.060419
                          7       1   14gy4              1.217666       1.912659
                          7       1   14gy3z             1.217666       5.060419
                          7       1   14gy2z2            1.217666       6.532973
                          7       1   14gyz3             1.217666       5.060419
                          7       1   14gz4              1.217666       1.912659

                          8       1   11dx2              1.581488       3.670921
                          8       1   11dxy              1.581488       6.358221
                          8       1   11dxz              1.581488       6.358221
                          8       1   11dy2              1.581488       3.670921
                          8       1   11dyz              1.581488       6.358221
                          8       1   11dz2              1.581488       3.670921

                          9       1    3s                1.620693       1.023730

                         10       1   13fx3              2.677157      13.496481
                         10       1   13fx2y             2.677157      30.179050
                         10       1   13fx2z             2.677157      30.179050
                         10       1   13fxy2             2.677157      30.179050
                         10       1   13fxyz             2.677157      52.271648
                         10       1   13fxz2             2.677157      30.179050
                         10       1   13fy3              2.677157      13.496481
                         10       1   13fy2z             2.677157      30.179050
                         10       1   13fyz2             2.677157      30.179050
                         10       1   13fz3              2.677157      13.496481

                         11       1    4s                5.999661       2.732154

                         12       1    9px               9.284861      23.102519
                         12       1    9py               9.284861      23.102519
                         12       1    9pz               9.284861      23.102519

                         13       1    5s               22.224963       7.295262

                         14       1    6s               82.329769      19.479498

       Atomic covalent radius [Angstrom]:                                  0.770

       Atomic van der Waals radius [Angstrom]:                             1.700

     The atoms of this atomic kind are PAW atoms (GAPW):
       Hard Gaussian function radius:                                      1.512
       Rho0 radius:                                                        1.512
       Maximum GTO radius used for PAW projector construction:            24.566

     GAPW Soft Basis Set                                  aug-SZV-MOLOPT-ae_soft

       Number of orbital shell sets:                                           2
       Number of orbital shells:                                               6
       Number of primitive Cartesian functions:                                6
       Number of Cartesian basis functions:                                   15
       Number of spherical basis functions:                                   14
       Norm type:                                                              2

       Normalised Cartesian orbitals:

                        Set   Shell   Orbital            Exponent    Coefficient

                          1       1    2s                0.070000       0.000000
                                                         0.143687       0.040037
                                                         0.313471       0.177689
                                                         0.721783       0.139661
                                                         1.876046      -0.038599

                          1       2    3s                0.070000      -0.142268
                                                         0.143687       0.288819
                                                         0.313471       0.010360
                                                         0.721783       0.175994
                                                         1.876046       0.000000

                          1       3    3px               0.070000       0.000000
                                                         0.143687       0.012825
                                                         0.313471       0.142381
                                                         0.721783       0.396426
                                                         1.876046       0.544234
                          1       3    3py               0.070000       0.000000
                                                         0.143687       0.012825
                                                         0.313471       0.142381
                                                         0.721783       0.396426
                                                         1.876046       0.544234
                          1       3    3pz               0.070000       0.000000
                                                         0.143687       0.012825
                                                         0.313471       0.142381
                                                         0.721783       0.396426
                                                         1.876046       0.544234

                          1       4    4px               0.070000       0.076505
                                                         0.143687      -0.086104
                                                         0.313471       0.010230
                                                         0.721783       0.129894
                                                         1.876046       0.000000
                          1       4    4py               0.070000       0.076505
                                                         0.143687      -0.086104
                                                         0.313471       0.010230
                                                         0.721783       0.129894
                                                         1.876046       0.000000
                          1       4    4pz               0.070000       0.076505
                                                         0.143687      -0.086104
                                                         0.313471       0.010230
                                                         0.721783       0.129894
                                                         1.876046       0.000000

                          1       5    4dx2              0.070000       0.004316
                                                         0.143687       0.012639
                                                         0.313471       0.125057
                                                         0.721783       0.080411
                                                         1.876046       0.000000
                          1       5    4dxy              0.070000       0.007476
                                                         0.143687       0.021892
                                                         0.313471       0.216606
                                                         0.721783       0.139276
                                                         1.876046       0.000000
                          1       5    4dxz              0.070000       0.007476
                                                         0.143687       0.021892
                                                         0.313471       0.216606
                                                         0.721783       0.139276
                                                         1.876046       0.000000
                          1       5    4dy2              0.070000       0.004316
                                                         0.143687       0.012639
                                                         0.313471       0.125057
                                                         0.721783       0.080411
                                                         1.876046       0.000000
                          1       5    4dyz              0.070000       0.007476
                                                         0.143687       0.021892
                                                         0.313471       0.216606
                                                         0.721783       0.139276
                                                         1.876046       0.000000
                          1       5    4dz2              0.070000       0.004316
                                                         0.143687       0.012639
                                                         0.313471       0.125057
                                                         0.721783       0.080411
                                                         1.876046       0.000000

                          2       1    1s                2.093200       0.161650

     AE Potential information for                                            ALL

       Description:                                       All-electron potential
                                          Krack, Parrinello, PCCP 2, 2105 (2000)

       Gaussian exponent of the core charge distribution:               4.109048
       Electronic configuration (s p d ...):                           4   2   0

  2. Atomic kind: H                                     Number of atoms:       7

     Orbital Basis Set                                         aug-SZV-MOLOPT-ae

       Number of orbital shell sets:                                           1
       Number of orbital shells:                                               4
       Number of primitive Cartesian functions:                                7
       Number of Cartesian basis functions:                                    6
       Number of spherical basis functions:                                    6
       Norm type:                                                              2

       Normalised Cartesian orbitals:

                        Set   Shell   Orbital            Exponent    Coefficient

                          1       1    1s                0.065428       0.000000
                                                         0.100112       0.016532
                                                         0.243077       0.102760
                                                         0.625955       0.185857
                                                         1.822143       0.188385
                                                         6.513144       0.143430
                                                        35.523221       0.095030

                          1       2    2s                0.065428       0.083549
                                                         0.100112       0.009605
                                                         0.243077       0.002524
                                                         0.625955       0.013457
                                                         1.822143       0.000000
                                                         6.513144       0.000000
                                                        35.523221       0.000000

                          1       3    3s                0.065428       0.037407
                                                         0.100112      -0.169070
                                                         0.243077      -0.018899
                                                         0.625955       0.012806
                                                         1.822143       0.000000
                                                         6.513144       0.000000
                                                        35.523221       0.000000

                          1       4    2px               0.065428       0.059908
                                                         0.100112      -0.023770
                                                         0.243077       0.000032
                                                         0.625955       0.017779
                                                         1.822143       0.000000
                                                         6.513144       0.000000
                                                        35.523221       0.000000
                          1       4    2py               0.065428       0.059908
                                                         0.100112      -0.023770
                                                         0.243077       0.000032
                                                         0.625955       0.017779
                                                         1.822143       0.000000
                                                         6.513144       0.000000
                                                        35.523221       0.000000
                          1       4    2pz               0.065428       0.059908
                                                         0.100112      -0.023770
                                                         0.243077       0.000032
                                                         0.625955       0.017779
                                                         1.822143       0.000000
                                                         6.513144       0.000000
                                                        35.523221       0.000000

     RI Auxiliary Basis Set             RI_aug-SZV-MOLOPT-ae_N_RI_007_s_p_d_f_g_

       Number of orbital shell sets:                                           5
       Number of orbital shells:                                               5
       Number of primitive Cartesian functions:                                5
       Number of Cartesian basis functions:                                    7
       Number of spherical basis functions:                                    7
       Norm type:                                                              2

       Normalised Cartesian orbitals:

                        Set   Shell   Orbital            Exponent    Coefficient

                          1       1    1s                0.148777       0.170731

                          2       1    5px               0.367452       0.407794
                          2       1    5py               0.367452       0.407794
                          2       1    5pz               0.367452       0.407794

                          3       1    2s                0.510503       0.430437

                          4       1    3s                1.106366       0.768837

                          5       1    4s                5.955292       2.716986

       Atomic covalent radius [Angstrom]:                                  0.320

       Atomic van der Waals radius [Angstrom]:                             1.090

     The atoms of this atomic kind are PAW atoms (GAPW):
       Hard Gaussian function radius:                                      1.200
       Rho0 radius:                                                        1.200
       Maximum GTO radius used for PAW projector construction:            24.566

     GAPW Soft Basis Set                                  aug-SZV-MOLOPT-ae_soft

       Number of orbital shell sets:                                           1
       Number of orbital shells:                                               4
       Number of primitive Cartesian functions:                                6
       Number of Cartesian basis functions:                                    6
       Number of spherical basis functions:                                    6
       Norm type:                                                              2

       Normalised Cartesian orbitals:

                        Set   Shell   Orbital            Exponent    Coefficient

                          1       1    1s                0.065428       0.000000
                                                         0.100112       0.016532
                                                         0.243077       0.102760
                                                         0.625955       0.185857
                                                         1.822143       0.188385
                                                         6.513144       0.000000

                          1       2    2s                0.065428       0.083549
                                                         0.100112       0.009605
                                                         0.243077       0.002524
                                                         0.625955       0.013457
                                                         1.822143       0.000000
                                                         6.513144       0.000000

                          1       3    3s                0.065428       0.037407
                                                         0.100112      -0.169070
                                                         0.243077      -0.018899
                                                         0.625955       0.012806
                                                         1.822143       0.000000
                                                         6.513144       0.000000

                          1       4    2px               0.065428       0.059908
                                                         0.100112      -0.023770
                                                         0.243077       0.000032
                                                         0.625955       0.017779
                                                         1.822143       0.000000
                                                         6.513144       0.000000
                          1       4    2py               0.065428       0.059908
                                                         0.100112      -0.023770
                                                         0.243077       0.000032
                                                         0.625955       0.017779
                                                         1.822143       0.000000
                                                         6.513144       0.000000
                          1       4    2pz               0.065428       0.059908
                                                         0.100112      -0.023770
                                                         0.243077       0.000032
                                                         0.625955       0.017779
                                                         1.822143       0.000000
                                                         6.513144       0.000000

     AE Potential information for                                            ALL

       Description:                                       All-electron potential
                                          Krack, Parrinello, PCCP 2, 2105 (2000)

       Gaussian exponent of the core charge distribution:              12.500000
       Electronic configuration (s p d ...):                           1   0   0

  3. Atomic kind: O                                     Number of atoms:       3

     Orbital Basis Set                                         aug-SZV-MOLOPT-ae

       Number of orbital shell sets:                                           2
       Number of orbital shells:                                               6
       Number of primitive Cartesian functions:                               13
       Number of Cartesian basis functions:                                   15
       Number of spherical basis functions:                                   14
       Norm type:                                                              2

       Normalised Cartesian orbitals:

                        Set   Shell   Orbital            Exponent    Coefficient

                          1       1    1s                0.123000       0.000000
                                                         0.245881       0.059902
                                                         0.536420       0.265853
                                                         1.235135       0.208956
                                                         3.210345      -0.057750
                                                        10.329320      -0.192968
                                                        52.187762      -0.183398

                          1       2    2s                0.123000      -0.253465
                                                         0.245881       0.187097
                                                         0.536420       0.063592
                                                         1.235135       0.074938
                                                         3.210345       0.000000
                                                        10.329320       0.000000
                                                        52.187762       0.000000

                          1       3    2px               0.123000       0.000000
                                                         0.245881       0.025102
                                                         0.536420       0.278668
                                                         1.235135       0.775885
                                                         3.210345       1.065175
                                                        10.329320       0.994565
                                                        52.187762       0.751716
                          1       3    2py               0.123000       0.000000
                                                         0.245881       0.025102
                                                         0.536420       0.278668
                                                         1.235135       0.775885
                                                         3.210345       1.065175
                                                        10.329320       0.994565
                                                        52.187762       0.751716
                          1       3    2pz               0.123000       0.000000
                                                         0.245881       0.025102
                                                         0.536420       0.278668
                                                         1.235135       0.775885
                                                         3.210345       1.065175
                                                        10.329320       0.994565
                                                        52.187762       0.751716

                          1       4    3px               0.123000       0.048536
                                                         0.245881       0.257066
                                                         0.536420      -0.539300
                                                         1.235135      -0.153605
                                                         3.210345       0.000000
                                                        10.329320       0.000000
                                                        52.187762       0.000000
                          1       4    3py               0.123000       0.048536
                                                         0.245881       0.257066
                                                         0.536420      -0.539300
                                                         1.235135      -0.153605
                                                         3.210345       0.000000
                                                        10.329320       0.000000
                                                        52.187762       0.000000
                          1       4    3pz               0.123000       0.048536
                                                         0.245881       0.257066
                                                         0.536420      -0.539300
                                                         1.235135      -0.153605
                                                         3.210345       0.000000
                                                        10.329320       0.000000
                                                        52.187762       0.000000

                          1       5    3dx2              0.123000       0.022065
                                                         0.245881       0.038414
                                                         0.536420       0.100211
                                                         1.235135       0.626583
                                                         3.210345       0.000000
                                                        10.329320       0.000000
                                                        52.187762       0.000000
                          1       5    3dxy              0.123000       0.038217
                                                         0.245881       0.066534
                                                         0.536420       0.173571
                                                         1.235135       1.085274
                                                         3.210345       0.000000
                                                        10.329320       0.000000
                                                        52.187762       0.000000
                          1       5    3dxz              0.123000       0.038217
                                                         0.245881       0.066534
                                                         0.536420       0.173571
                                                         1.235135       1.085274
                                                         3.210345       0.000000
                                                        10.329320       0.000000
                                                        52.187762       0.000000
                          1       5    3dy2              0.123000       0.022065
                                                         0.245881       0.038414
                                                         0.536420       0.100211
                                                         1.235135       0.626583
                                                         3.210345       0.000000
                                                        10.329320       0.000000
                                                        52.187762       0.000000
                          1       5    3dyz              0.123000       0.038217
                                                         0.245881       0.066534
                                                         0.536420       0.173571
                                                         1.235135       1.085274
                                                         3.210345       0.000000
                                                        10.329320       0.000000
                                                        52.187762       0.000000
                          1       5    3dz2              0.123000       0.022065
                                                         0.245881       0.038414
                                                         0.536420       0.100211
                                                         1.235135       0.626583
                                                         3.210345       0.000000
                                                        10.329320       0.000000
                                                        52.187762       0.000000

                          2       1    1s             1355.584234       1.459053
                                                       248.544885       2.202176
                                                        69.533902       2.892385
                                                        23.886772       2.853580
                                                         9.275933       1.577736
                                                         3.820341       0.253831

     RI Auxiliary Basis Set             RI_aug-SZV-MOLOPT-ae_N_RI_054_s_p_d_f_g_

       Number of orbital shell sets:                                          18
       Number of orbital shells:                                              18
       Number of primitive Cartesian functions:                               18
       Number of Cartesian basis functions:                                   63
       Number of spherical basis functions:                                   54
       Norm type:                                                              2

       Normalised Cartesian orbitals:

                        Set   Shell   Orbital            Exponent    Coefficient

                          1       1    1s                0.430624       0.378864

                          2       1    8px               0.484961       0.576864
                          2       1    8py               0.484961       0.576864
                          2       1    8pz               0.484961       0.576864

                          3       1   14dx2              0.571732       0.618723
                          3       1   14dxy              0.571732       1.071659
                          3       1   14dxz              0.571732       1.071659
                          3       1   14dy2              0.571732       0.618723
                          3       1   14dyz              0.571732       1.071659
                          3       1   14dz2              0.571732       0.618723

                          4       1    2s                0.852188       0.632138

                          5       1   17fx3              1.068436       1.708592
                          5       1   17fx2y             1.068436       3.820528
                          5       1   17fx2z             1.068436       3.820528
                          5       1   17fxy2             1.068436       3.820528
                          5       1   17fxyz             1.068436       6.617348
                          5       1   17fxz2             1.068436       3.820528
                          5       1   17fy3              1.068436       1.708592
                          5       1   17fy2z             1.068436       3.820528
                          5       1   17fyz2             1.068436       3.820528
                          5       1   17fz3              1.068436       1.708592

                          6       1    9px               1.238059       1.861516
                          6       1    9py               1.238059       1.861516
                          6       1    9pz               1.238059       1.861516

                          7       1   15dx2              1.724523       4.271499
                          7       1   15dxy              1.724523       7.398453
                          7       1   15dxz              1.724523       7.398453
                          7       1   15dy2              1.724523       4.271499
                          7       1   15dyz              1.724523       7.398453
                          7       1   15dz2              1.724523       4.271499

                          8       1    3s                3.004888       1.626602

                          9       1   10px               3.911991       7.842191
                          9       1   10py               3.911991       7.842191
                          9       1   10pz               3.911991       7.842191

                         10       1   18fx3              6.000838      82.971930
                         10       1   18fx2y             6.000838     185.530877
                         10       1   18fx2z             6.000838     185.530877
                         10       1   18fxy2             6.000838     185.530877
                         10       1   18fxyz             6.000838     321.348905
                         10       1   18fxz2             6.000838     185.530877
                         10       1   18fy3              6.000838      82.971930
                         10       1   18fy2z             6.000838     185.530877
                         10       1   18fyz2             6.000838     185.530877
                         10       1   18fz3              6.000838      82.971930

                         11       1    4s               10.922884       4.282162

                         12       1   11px              11.266399      29.421954
                         12       1   11py              11.266399      29.421954
                         12       1   11pz              11.266399      29.421954

                         13       1   16dx2             18.377454     268.478068
                         13       1   16dxy             18.377454     465.017654
                         13       1   16dxz             18.377454     465.017654
                         13       1   16dy2             18.377454     268.478068
                         13       1   16dyz             18.377454     465.017654
                         13       1   16dz2             18.377454     268.478068

                         14       1   12px              32.517499     110.684424
                         14       1   12py              32.517499     110.684424
                         14       1   12pz              32.517499     110.684424

                         15       1    5s               38.998048      11.122240

                         16       1   13px              93.445601     414.131881
                         16       1   13py              93.445601     414.131881
                         16       1   13pz              93.445601     414.131881

                         17       1    6s              138.126380      28.715578

                         18       1    7s              488.407219      74.045155

       Atomic covalent radius [Angstrom]:                                  0.730

       Atomic van der Waals radius [Angstrom]:                             1.520

     The atoms of this atomic kind are PAW atoms (GAPW):
       Hard Gaussian function radius:                                      1.512
       Rho0 radius:                                                        1.512
       Maximum GTO radius used for PAW projector construction:            24.566

     GAPW Soft Basis Set                                  aug-SZV-MOLOPT-ae_soft

       Number of orbital shell sets:                                           2
       Number of orbital shells:                                               6
       Number of primitive Cartesian functions:                                6
       Number of Cartesian basis functions:                                   15
       Number of spherical basis functions:                                   14
       Norm type:                                                              2

       Normalised Cartesian orbitals:

                        Set   Shell   Orbital            Exponent    Coefficient

                          1       1    1s                0.123000       0.000000
                                                         0.245881       0.059902
                                                         0.536420       0.265853
                                                         1.235135       0.208956
                                                         3.210345      -0.057750

                          1       2    2s                0.123000      -0.253465
                                                         0.245881       0.187097
                                                         0.536420       0.063592
                                                         1.235135       0.074938
                                                         3.210345       0.000000

                          1       3    2px               0.123000       0.000000
                                                         0.245881       0.025102
                                                         0.536420       0.278668
                                                         1.235135       0.775885
                                                         3.210345       1.065175
                          1       3    2py               0.123000       0.000000
                                                         0.245881       0.025102
                                                         0.536420       0.278668
                                                         1.235135       0.775885
                                                         3.210345       1.065175
                          1       3    2pz               0.123000       0.000000
                                                         0.245881       0.025102
                                                         0.536420       0.278668
                                                         1.235135       0.775885
                                                         3.210345       1.065175

                          1       4    3px               0.123000       0.048536
                                                         0.245881       0.257066
                                                         0.536420      -0.539300
                                                         1.235135      -0.153605
                                                         3.210345       0.000000
                          1       4    3py               0.123000       0.048536
                                                         0.245881       0.257066
                                                         0.536420      -0.539300
                                                         1.235135      -0.153605
                                                         3.210345       0.000000
                          1       4    3pz               0.123000       0.048536
                                                         0.245881       0.257066
                                                         0.536420      -0.539300
                                                         1.235135      -0.153605
                                                         3.210345       0.000000

                          1       5    3dx2              0.123000       0.022065
                                                         0.245881       0.038414
                                                         0.536420       0.100211
                                                         1.235135       0.626583
                                                         3.210345       0.000000
                          1       5    3dxy              0.123000       0.038217
                                                         0.245881       0.066534
                                                         0.536420       0.173571
                                                         1.235135       1.085274
                                                         3.210345       0.000000
                          1       5    3dxz              0.123000       0.038217
                                                         0.245881       0.066534
                                                         0.536420       0.173571
                                                         1.235135       1.085274
                                                         3.210345       0.000000
                          1       5    3dy2              0.123000       0.022065
                                                         0.245881       0.038414
                                                         0.536420       0.100211
                                                         1.235135       0.626583
                                                         3.210345       0.000000
                          1       5    3dyz              0.123000       0.038217
                                                         0.245881       0.066534
                                                         0.536420       0.173571
                                                         1.235135       1.085274
                                                         3.210345       0.000000
                          1       5    3dz2              0.123000       0.022065
                                                         0.245881       0.038414
                                                         0.536420       0.100211
                                                         1.235135       0.626583
                                                         3.210345       0.000000

                          2       1    1s                3.820341       0.253831

     AE Potential information for                                            ALL

       Description:                                       All-electron potential
                                          Krack, Parrinello, PCCP 2, 2105 (2000)

       Gaussian exponent of the core charge distribution:               8.154466
       Electronic configuration (s p d ...):                           4   4   0

  4. Atomic kind: S                                     Number of atoms:       1

     Orbital Basis Set                                         aug-SZV-MOLOPT-ae

       Number of orbital shell sets:                                           3
       Number of orbital shells:                                               8
       Number of primitive Cartesian functions:                               19
       Number of Cartesian basis functions:                                   19
       Number of spherical basis functions:                                   18
       Norm type:                                                              2

       Normalised Cartesian orbitals:

                        Set   Shell   Orbital            Exponent    Coefficient

                          1       1    1s                0.072000       0.000000
                                                         0.148404       0.047043
                                                         0.287959       0.206056
                                                         0.581913       0.071732
                                                         1.300021      -0.154888
                                                         3.466625      -0.128563
                                                        12.944394      -0.038633

                          1       2    2s                0.072000       0.024465
                                                         0.148404       0.270123
                                                         0.287959      -0.286184
                                                         0.581913       0.001423
                                                         1.300021       0.046778
                                                         3.466625       0.000000
                                                        12.944394       0.000000

                          1       3    2px               0.072000       0.000000
                                                         0.148404       0.013902
                                                         0.287959       0.147021
                                                         0.581913       0.300295
                                                         1.300021       0.150808
                                                         3.466625      -0.123340
                                                        12.944394      -0.249863
                          1       3    2py               0.072000       0.000000
                                                         0.148404       0.013902
                                                         0.287959       0.147021
                                                         0.581913       0.300295
                                                         1.300021       0.150808
                                                         3.466625      -0.123340
                                                        12.944394      -0.249863
                          1       3    2pz               0.072000       0.000000
                                                         0.148404       0.013902
                                                         0.287959       0.147021
                                                         0.581913       0.300295
                                                         1.300021       0.150808
                                                         3.466625      -0.123340
                                                        12.944394      -0.249863

                          1       4    3px               0.072000      -0.066040
                                                         0.148404       0.050064
                                                         0.287959      -0.069730
                                                         0.581913       0.158592
                                                         1.300021      -0.055990
                                                         3.466625       0.000000
                                                        12.944394       0.000000
                          1       4    3py               0.072000      -0.066040
                                                         0.148404       0.050064
                                                         0.287959      -0.069730
                                                         0.581913       0.158592
                                                         1.300021      -0.055990
                                                         3.466625       0.000000
                                                        12.944394       0.000000
                          1       4    3pz               0.072000      -0.066040
                                                         0.148404       0.050064
                                                         0.287959      -0.069730
                                                         0.581913       0.158592
                                                         1.300021      -0.055990
                                                         3.466625       0.000000
                                                        12.944394       0.000000

                          1       5    3dx2              0.072000       0.001679
                                                         0.148404       0.023049
                                                         0.287959       0.065695
                                                         0.581913       0.132541
                                                         1.300021       0.392654
                                                         3.466625       0.000000
                                                        12.944394       0.000000
                          1       5    3dxy              0.072000       0.002907
                                                         0.148404       0.039921
                                                         0.287959       0.113787
                                                         0.581913       0.229567
                                                         1.300021       0.680096
                                                         3.466625       0.000000
                                                        12.944394       0.000000
                          1       5    3dxz              0.072000       0.002907
                                                         0.148404       0.039921
                                                         0.287959       0.113787
                                                         0.581913       0.229567
                                                         1.300021       0.680096
                                                         3.466625       0.000000
                                                        12.944394       0.000000
                          1       5    3dy2              0.072000       0.001679
                                                         0.148404       0.023049
                                                         0.287959       0.065695
                                                         0.581913       0.132541
                                                         1.300021       0.392654
                                                         3.466625       0.000000
                                                        12.944394       0.000000
                          1       5    3dyz              0.072000       0.002907
                                                         0.148404       0.039921
                                                         0.287959       0.113787
                                                         0.581913       0.229567
                                                         1.300021       0.680096
                                                         3.466625       0.000000
                                                        12.944394       0.000000
                          1       5    3dz2              0.072000       0.001679
                                                         0.148404       0.023049
                                                         0.287959       0.065695
                                                         0.581913       0.132541
                                                         1.300021       0.392654
                                                         3.466625       0.000000
                                                        12.944394       0.000000

                          2       1    1s              345.589679      -0.757073
                                                        68.401217      -0.796580
                                                        21.259047      -0.238395
                                                         8.179122       0.862581
                                                         3.552198       1.097452
                                                         1.628232       0.247277

                          2       2    2px             345.589679       7.985348
                                                        68.401217      10.565097
                                                        21.259047      11.315175
                                                         8.179122       8.242094
                                                         3.552198       2.960247
                                                         1.628232       0.266650
                          2       2    2py             345.589679       7.985348
[...]
 pw_copy                           1195 10.6    0.816    0.864    0.816    0.864
 cp2k_distribution_to_z_slices       80  9.0    0.297    0.344    0.794    0.821
 transfer_rs2pw_90                   80  9.0    0.176    0.205    0.727    0.796
 transfer_pw2rs_90                   80 12.0    0.149    0.181    0.656    0.788
 cp_fm_redistribute_end              85  8.1    0.082    0.776    0.085    0.780
 mp_sendrecv_dv                   12640 10.0    0.722    0.773    0.722    0.773
 cp_fm_diag_elpa_base                85  8.0    0.674    0.724    0.691    0.741
 dbm_redistribute                  1056 15.2    0.632    0.737    0.632    0.737
 dbcsr_complete_redistribute        583  9.4    0.017    0.020    0.408    0.736
 dbt_tas_estimate_result_nze        235 12.9    0.064    0.103    0.724    0.724
 convert_to_new_pgrid              1410 14.4    0.158    0.214    0.596    0.707
 rs_gather_matrices                  80 10.0    0.002    0.004    0.626    0.702
 grid_integrate_task_list            80 10.0    0.109    0.699    0.109    0.699
 fm_to_local_tensor                 152  8.0    0.001    0.001    0.405    0.680
 mp_sum_l                          3413 12.3    0.534    0.616    0.534    0.616
 rs_grid_zero                       402 11.2    0.579    0.615    0.579    0.615
 compute_V_xc                         1  7.0    0.000    0.000    0.604    0.604
 parallel_gemm_fm                   342  8.2    0.000    0.000    0.537    0.592
 parallel_gemm_fm_cosma             342  9.2    0.537    0.591    0.537    0.591
 fm_write                           121  9.0    0.006    0.251    0.388    0.583
 pw_poisson_set                      81  9.0    0.001    0.001    0.538    0.577
 parallel_gemm_cfm                  285 10.4    0.000    0.000    0.554    0.571
 parallel_gemm_cfm_cosma            285 11.4    0.554    0.570    0.554    0.570
 pw_copy_to_array                   797 11.8    0.461    0.566    0.461    0.566
 write_matrix                        91  8.0    0.000    0.000    0.392    0.548
 compute_cfm_W_ikp_freq_j            30 10.0    0.001    0.002    0.544    0.547
 fft_wrap_pw1pw2_90                 160 10.5    0.024    0.026    0.521    0.543
 copy_fm_to_dbcsr                   310  8.5    0.001    0.001    0.184    0.514
 dbt_tas_distribution_new          1256 14.4    0.266    0.282    0.501    0.513
 pw_copy_from_array                 874 12.1    0.403    0.492    0.403    0.492
 dbt_tas_create_split              1570 15.2    0.002    0.002    0.464    0.466
 mp_alltoall_i22                    862 10.4    0.136    0.465    0.136    0.465
 dbt_tas_create_split_rows_or_c    1570 16.2    0.004    0.004    0.463    0.465
 copy_dbcsr_to_fm                   273  8.3    0.003    0.003    0.444    0.462
 cp_fm_write_unformatted            125  9.9    0.393    0.398    0.396    0.437
 check_sparsity_3c                    1  7.0    0.000    0.000    0.429    0.429
 dbt_tas_mm_3N                       58 15.5    0.000    0.000    0.348    0.427
 mp_isend_dv                      25721 14.2    0.219    0.412    0.219    0.412
 dbt_copy                           450 10.1    0.003    0.003    0.297    0.410
 dbt_tas_mm_3T                      118 15.5    0.000    0.000    0.294    0.408
 mp_bcast_dm                       3201  9.0    0.396    0.404    0.396    0.404
 pw_integral_ab_c1d_c1d_gs           80  9.0    0.350    0.358    0.386    0.395
 dbt_tas_mm_1N                      120 15.5    0.000    0.000    0.295    0.387
 reshape_mm_small                   470 14.4    0.033    0.034    0.381    0.384
 pw_poisson_rebuild                  80  9.0    0.000    0.000    0.364    0.378
 ps_wavelet_create                    1 10.0    0.000    0.000    0.364    0.378
 RS_z_slice_distribution              1 11.0    0.254    0.279    0.364    0.378
 pw_axpy                            795  9.3    0.346    0.371    0.346    0.371
 qs_energies_init_hamiltonians        1  3.0    0.000    0.000    0.359    0.359
 build_core_hamiltonian_matrix        1  4.0    0.000    0.000    0.356    0.356
 overlap_condnum                      1  5.0    0.000    0.000    0.353    0.354
 calculate_rho_atom_coeff            80  6.0    0.045    0.051    0.342    0.342
 get_Sigma_x                          1  7.0    0.000    0.000    0.330    0.330
 compute_Sigma_x                      1  8.0    0.000    0.000    0.330    0.330
 arnoldi_conjugate_gradient           5  6.0    0.007    0.009    0.327    0.327
 G_occ_vir                          121  8.0    0.001    0.005    0.281    0.326
 dbt_reshape                        271 10.9    0.096    0.130    0.233    0.326
 integrate_four_center_load          80 10.0    0.000    0.000    0.267    0.309
 hfx_load_balance                     1 11.0    0.000    0.001    0.266    0.309
 transfer_rs2pw_10                   80  9.0    0.080    0.087    0.271    0.285
 transfer_pw2rs_10                   80 12.0    0.127    0.136    0.258    0.274
 hfx_load_balance_range               1 12.0    0.000    0.000    0.229    0.272
 Vh_1c_gg_integrals                  80  8.0    0.016    0.208    0.258    0.271
 calculate_dm_sparse                 79  6.0    0.000    0.000    0.208    0.266
 cp_dbcsr_plus_fm_fm_t               79  7.0    0.001    0.001    0.207    0.266
 update_ks_atom                      80  8.0    0.037    0.057    0.231    0.247
 mp_cart_create                    3275 14.5    0.227    0.240    0.229    0.242
 scale_and_distribute               160 10.0    0.071    0.240    0.071    0.240
 init_scf_run                         1  3.0    0.000    0.000    0.239    0.239
 mp_comm_split_direct              1572 17.2    0.234    0.235    0.235    0.236
 dbcsr_desymmetrize_deep            279  9.4    0.005    0.005    0.210    0.229
 scf_env_initial_rho_setup            1  4.0    0.000    0.000    0.225    0.227
 dbt_create_matrix                  152  9.0    0.001    0.001    0.218    0.220
 pw_zero                            476 10.3    0.209    0.220    0.209    0.220
 reshape_mm_compatible              470 14.4    0.005    0.006    0.212    0.216
 mp_waitall_2                      2570 16.2    0.131    0.214    0.131    0.214
 dbcsr_sym_matrix_vector_mult      2295  7.0    0.016    0.018    0.190    0.197
 qs_init_subsys                       1  2.0    0.002    0.002    0.196    0.196
 multiply_fm_W_MIC_time_with_Mi       2  9.0    0.000    0.000    0.196    0.196
 dbt_distribution_new_expert        316 10.5    0.002    0.003    0.194    0.194
 change_split                       705 14.9    0.002    0.002    0.187    0.192
 qs_env_setup                         1  3.0    0.000    0.000    0.190    0.191
 qs_env_rebuild_pw_env                2  3.5    0.000    0.000    0.190    0.191
 pw_env_rebuild                       1  5.0    0.000    0.000    0.190    0.191
 compute_QP_energies                  1  7.0    0.000    0.000    0.190    0.190
 dbt_communicate_buffer             271 11.9    0.002    0.002    0.101    0.173
 dbt_tas_replicate                  470 14.4    0.033    0.037    0.141    0.165
 pw_grid_setup                        4  6.0    0.000    0.000    0.160    0.161
 pw_grid_setup_internal               4  7.0    0.002    0.003    0.160    0.161
 mp_alltoall_i11v                  2028 10.4    0.157    0.158    0.157    0.158
 create_qs_kind_set                   1  2.0    0.000    0.000    0.151    0.152
 read_qs_kind                         5  3.0    0.071    0.087    0.151    0.152
 to_ikp_and_mo                       62  8.0    0.000    0.001    0.151    0.151
 dbcsr_add_d                       4405  7.9    0.002    0.002    0.048    0.151
 cp_fm_redistribute_start            85  8.1    0.059    0.062    0.081    0.151
 fm_Gamma_ao_to_cfm_ikp_mo           62  9.0    0.000    0.000    0.140    0.150
 dbcsr_add_anytype                 4405  8.9    0.006    0.017    0.046    0.149
 mp_irecv_dv                      25355 14.2    0.017    0.149    0.017    0.149
 fft_wrap_pw1pw2_30                 160 10.5    0.005    0.005    0.137    0.141
 cp_cfm_cholesky_decompose           35 10.7    0.130    0.135    0.130    0.135
 mp_max_i                          1023  6.6    0.111    0.135    0.111    0.135
 dbcsr_multiply_generic              79  8.0    0.003    0.003    0.120    0.134
 calculate_rho0_atom                400  9.0    0.128    0.131    0.128    0.131
 dbm_add                            470 14.4    0.071    0.130    0.071    0.130
 dbm_reserve_blocks                2375 15.6    0.079    0.129    0.079    0.129
 cp_cfm_cholesky_invert              31 11.0    0.120    0.124    0.120    0.124
 dbt_tas_reserve_blocks_index      1905 14.6    0.002    0.003    0.072    0.122
 mp_comm_dup                       1339 17.6    0.112    0.117    0.113    0.118
 pw_grid_sort                         4  8.0    0.081    0.084    0.110    0.116
 dbt_tas_communicate_buffer         940 16.7    0.015    0.016    0.079    0.110
 check_for_restart_files              1  7.0    0.091    0.110    0.091    0.110
 dbcsr_finalize                    7652 11.4    0.014    0.029    0.056    0.106
 setup_time_and_frequency_minim       1  7.0    0.000    0.000    0.100    0.102
 mp_alltoall_i                     1725 14.4    0.089    0.097    0.089    0.097
 cp_fm_power                          3  8.7    0.001    0.001    0.094    0.094
 vxc_of_r_new                       632  9.0    0.001    0.013    0.005    0.086
 compute_fm_chi_Gamma_freq           30 10.0    0.000    0.000    0.077    0.086
 dbt_reserve_blocks_index           816 12.3    0.001    0.002    0.050    0.085
 parser_read_line                 31377  4.0    0.005    0.005    0.080    0.083
 dbt_create_new                     158 10.0    0.001    0.002    0.080    0.081
 parser_read_line_low                46  5.0    0.002    0.024    0.075    0.078
 fill_fm_Sigma_c_Gamma_time           1  8.0    0.000    0.000    0.077    0.077
 dbt_tas_merge                      174 14.2    0.017    0.019    0.065    0.077
 broadcast_input_information         46  6.0    0.007    0.008    0.073    0.076
 dbcsr_col_vec_to_rep_row          2295  8.0    0.008    0.008    0.068    0.075
 mp_isendrecv_dv                  25280 12.0    0.037    0.074    0.037    0.074
 mp_cart_sub                        562 10.4    0.072    0.073    0.072    0.073
 dbt_tas_reshape                    470 15.0    0.004    0.004    0.063    0.068
 pw_scale                           317  9.5    0.043    0.068    0.043    0.068
 mp_rank_compare                   1671 13.0    0.048    0.066    0.048    0.066
 fft_wrap_pw1pw2_10                 160 10.5    0.001    0.001    0.063    0.066
 dbt_tas_copy                       149 11.6    0.028    0.031    0.048    0.065
 hybrid_alltoall_any                437 11.0    0.002    0.002    0.064    0.065
 cp_cfm_geeig                         2  7.0    0.000    0.000    0.064    0.064
 multiply_cannon                     79  9.0    0.004    0.005    0.050    0.064
 mp_send_dv                         125 10.9    0.002    0.061    0.002    0.061
 dbt_tas_replicate_communicate_     296 15.5    0.001    0.001    0.037    0.060
 mp_bcast_dv                       2380  9.0    0.047    0.057    0.047    0.057
 mp_isend_dm3                      2892 11.5    0.031    0.057    0.031    0.057
 make_m2s                           158  9.0    0.003    0.003    0.053    0.055
 integrate_four_center_getP          80 10.0    0.006    0.007    0.052    0.054
 dbcsr_iterator_start             33447  9.2    0.029    0.039    0.035    0.054
 dos_pdos_ldos                        1  5.0    0.000    0.000    0.044    0.054
 multiply_cannon_loop                79 10.0    0.005    0.005    0.038    0.052
 dbt_pgrid_create_expert            320 11.5    0.001    0.001    0.050    0.052
 scf_post_calculation_gpw             1  3.0    0.000    0.000    0.051    0.051
 write_available_results              1  4.0    0.000    0.000    0.051    0.051
 write_mo_free_results                1  5.0    0.004    0.005    0.051    0.051
 alloc_block_3c                     154 10.6    0.009    0.019    0.033    0.051
 mp_bcast_i_src                     184  7.0    0.041    0.050    0.041    0.050
 build_3c_integrals_put_dbcsr      5724 10.6    0.016    0.049    0.016    0.049
 cp_fm_symm                          79  7.0    0.043    0.046    0.043    0.046
 dbcsr_merge_all                   5758 12.5    0.020    0.037    0.026    0.046
 dbt_reserve_blocks_index_array     510 12.0    0.001    0.001    0.029    0.046
 dbt_tas_merge_communicate_buff     174 15.2    0.001    0.001    0.034    0.043
 dbcsr_rep_row_to_rep_col_vec      2295  8.0    0.006    0.007    0.036    0.042
 dbt_tas_reserve_blocks_templat     619 13.6    0.001    0.002    0.024    0.038
 integrate_four_center_dist_KS       80 10.0    0.006    0.007    0.036    0.038
 dbt_tas_replicate_alltoall         296 15.5    0.000    0.000    0.031    0.038
 dbt_crop                           209 11.0    0.018    0.022    0.028    0.037
 dbcsr_work_create                 6511 11.5    0.011    0.025    0.016    0.036
 get_l_sq_wghts_cos_tf_t_to_w         1  8.0    0.035    0.036    0.035    0.036
 get_l_sq_wghts_sin_tf_t_to_w         1  8.0    0.034    0.034    0.034    0.034
 mp_max_d                            86  7.0    0.020    0.034    0.020    0.034
 self_consistency_check              79  5.0    0.000    0.000    0.020    0.034
 cp_sm_mix                           79  6.0    0.000    0.000    0.020    0.034
 dbt_destroy                       1828 10.1    0.015    0.033    0.016    0.034
 sort_shells                          4  9.0    0.029    0.033    0.029    0.033
 get_l_sq_wghts_cos_tf_w_to_t         1  8.0    0.030    0.030    0.031    0.032
 multiply_cannon_metrocomm3        1580 11.0    0.002    0.002    0.019    0.031
 local_dbt_to_global_mat             91  8.0    0.000    0.000    0.029    0.031
 dbt_tas_mp_comm                    235 12.9    0.001    0.001    0.030    0.031
 hfx_load_balance_redist              1 12.0    0.003    0.003    0.030    0.031
 mp_bcast_am_src                     46  7.0    0.023    0.030    0.024    0.030
 dbcsr_copy                       10013  7.7    0.017    0.018    0.028    0.030
 mixing_init                          1  5.0    0.026    0.028    0.028    0.029
 compute_max_radius                   1  6.0    0.025    0.028    0.025    0.028
 cp_fm_uplo_to_full                  88  9.1    0.018    0.027    0.018    0.027
 mp_sum_i                           630 14.2    0.026    0.027    0.026    0.027
 dbt_nd_mp_comm                     152 10.0    0.000    0.000    0.025    0.027
 dbcsr_iterator_stop              33447  9.2    0.016    0.023    0.020    0.027
 mp_isendrecv_lv                    158 13.0    0.001    0.027    0.001    0.027
 mp_recv_dv                        2310 10.9    0.000    0.026    0.000    0.026
 xc_pw_smooth                        79 10.0    0.000    0.000    0.024    0.025
 dbcsr_work_destroy_all            6511 12.4    0.008    0.018    0.012    0.025
 RI_2c_integral_mat                   4  9.8    0.000    0.000    0.023    0.025
 hirshfeld_integration                1  6.0    0.001    0.010    0.024    0.024
 global_matrix_to_local_matrix      152  9.0    0.001    0.001    0.021    0.024
 create_and_init_bs_env               1  5.0    0.000    0.000    0.024    0.024
 dbt_tas_reshape_alltoall           470 16.0    0.000    0.000    0.021    0.024
 make_images                        158 10.0    0.004    0.004    0.022    0.024
 dbcsr_create_new                 13755  9.2    0.017    0.018    0.022    0.023
 destroy_tensors_chi                 30  8.0    0.000    0.000    0.006    0.023
 dbm_copy                           236 15.0    0.017    0.023    0.017    0.023
 rs_scatter_matrices                 80  7.0    0.001    0.001    0.022    0.023
 mp_maxloc_dv                      1623  1.0    0.019    0.022    0.019    0.022
 offload_free_buffer                 88  8.5    0.015    0.021    0.015    0.021
 dbt_tas_reshape_buffer_obtain      470 16.0    0.015    0.016    0.021    0.021
 dbcsr_crop_matrix                  474 10.0    0.002    0.002    0.020    0.021
 compute_MinvVsqrt_Vsqrt              1  9.0    0.000    0.000    0.021    0.021
 calculate_hirshfeld_normalizat       1  6.0    0.001    0.010    0.020    0.020
 write_mo_set_to_restart             79  5.0    0.001    0.014    0.015    0.020
 diagonalize_ks_matrix                1  6.0    0.000    0.000    0.020    0.020
 cp_fm_geeig_canon                    1  7.0    0.000    0.000    0.020    0.020
 pw_grid_remap                        4  8.0    0.003    0.003    0.015    0.019
 local_matrix_to_global_matrix       91  9.0    0.000    0.000    0.016    0.018
 dbcsr_data_new                   63209 11.8    0.010    0.017    0.010    0.017
 mp_sum_im3                           6  9.5    0.012    0.016    0.012    0.016
 dbcsr_copy_submatrix               474 11.0    0.002    0.002    0.015    0.016
 mp_bcast_b_src                     164  7.5    0.011    0.016    0.011    0.016
 dbcsr_data_release              101798 11.3    0.011    0.015    0.011    0.015
 dbcsr_iterator_seek              33447 10.2    0.006    0.015    0.006    0.015
 mp_comm_free                      7058 13.6    0.014    0.015    0.014    0.015
 dbt_copy_nocomm                     30 10.0    0.007    0.010    0.012    0.015
 create_fast_col_vec_access        4590  8.0    0.009    0.010    0.014    0.015
 pw_grid_assign                       4  8.0    0.013    0.014    0.014    0.015
 write_mo_set_low                     4  6.0    0.000    0.000    0.014    0.014
 dbcsr_filter_anytype               724  9.8    0.002    0.002    0.013    0.014
 create_fast_row_vec_access        4590  8.0    0.008    0.009    0.013    0.014
 mp_sum_iv                          201  8.8    0.011    0.014    0.011    0.014
 dbt_tas_reshape_communicate_bu     470 16.0    0.001    0.001    0.011    0.013
 restraint_control                    1  2.0    0.000    0.000    0.013    0.013
 make_images_sizes                  158 11.0    0.000    0.000    0.010    0.013
 mp_alltoall_i44                    158 12.0    0.010    0.013    0.010    0.013
 mp_bcast_av                        812  1.0    0.004    0.006    0.011    0.013
 MIC_contribution_from_ikp           30 10.0    0.005    0.009    0.006    0.013
 multiply_cannon_metrocomm4        1501 11.0    0.002    0.003    0.005    0.013
 write_dos_pdos                       2  6.0    0.000    0.013    0.000    0.013
 compute_proj_mo_on_kind              1  6.0    0.000    0.000    0.012    0.012
 multiply_cannon_metrocomm1        1580 11.0    0.001    0.001    0.003    0.012
 dbcsr_sym_matrix_vector_mult_l    2295  8.0    0.005    0.007    0.010    0.012
 delete_unnecessary_files             1  8.0    0.000    0.000    0.000    0.012
 dbcsr_scale_anytype               4406  9.9    0.003    0.004    0.009    0.012
 safe_delete                         60  9.0    0.000    0.012    0.000    0.012
 mp_bcast_i                        2158 13.1    0.010    0.012    0.010    0.012
 mp_sum_im                           95  9.0    0.010    0.012    0.010    0.012
 -------------------------------------------------------------------------------

 The number of warnings for this run is : 1
 
 -------------------------------------------------------------------------------
  **** **** ******  **  PROGRAM ENDED AT                 2025-05-30 07:31:17.769
 ***** ** ***  *** **   PROGRAM RAN ON                                  n2cn0701
 **    ****   ******    PROGRAM RAN BY                                  metdyn02
 ***** **    ** ** **   PROGRAM PROCESS ID                               1876717
  **** **  *******  **  PROGRAM STOPPED IN /scratch/hpc-prf-metdyn/metdyn02_Remi
                                           /10_MOL/05_MOL_low_scal/05_MOL/aUKBqs
                                           EOTmq69kFe5R_nOg/5k_set_final_qzvp/ZA
                                           PCIE/SZV/1e-4/5.0
