 DBCSR| CPU Multiplication driver                                           BLAS (U)
 DBCSR| Multrec recursion limit                                              512 (U)
 DBCSR| Multiplication stack size                                           1000 (D)
 DBCSR| Maximum elements for images                                    UNLIMITED (U)
 DBCSR| Multiplicative factor virtual images                                   1 (U)
 DBCSR| Use multiplication densification                                       T (D)
 DBCSR| Multiplication size stacks                                             3 (U)
 DBCSR| Use memory pool for CPU allocation                                     F (U)
 DBCSR| Number of 3D layers                                               SINGLE (U)
 DBCSR| Use MPI memory allocation                                              F (U)
 DBCSR| Use RMA algorithm                                                      F (U)
 DBCSR| Use Communication thread                                               T (U)
 DBCSR| Communication thread load                                             75 (D)
 DBCSR| MPI: My process id                                                     0
 DBCSR| MPI: Number of processes                                             216
 DBCSR| OMP: Current number of threads                                         4
 DBCSR| OMP: Max number of threads                                             4
 DBCSR| Split modifier for TAS multiplication algorithm                  1.0E+00 (U)


  **** **** ******  **  PROGRAM STARTED AT               2025-04-02 20:41:15.644
 ***** ** ***  *** **   PROGRAM STARTED ON                          i06r01c04s03
 **    ****   ******    PROGRAM STARTED BY                               di38fab
 ***** **    ** ** **   PROGRAM PROCESS ID                               1374713
  **** **  *******  **  PROGRAM STARTED IN /hppfs/scratch/04/di38fab/07_MOL_non_
                                           aug/05_MOL_non_aug/05_MOL/aUKBqsEOTmq
                                           69kFe5R_nOg/5k_set_final_qzvp/OGEJUG/
                                           QZVPP/TDDFT

 CP2K| version string:                 CP2K version 2025.1 (Development Version)
 CP2K| source code revision number:                                  git:d2e611a
 CP2K| cp2kflags: omp libint fftw3 libxc parallel scalapack max_contr=4         
 CP2K| is freely available from                            https://www.cp2k.org/
 CP2K| Program compiled at                       Thu 06 Mar 2025 05:09:20 PM CET
 CP2K| Program compiled on                                               login02
 CP2K| Program compiled for                                        Supermuc-foss
 CP2K| Data directory path                  /hppfs/work/pn36zo/di38fab/cp2k/data
 CP2K| Input file name                                                    GW.inp

 GLOBAL| Force Environment number                                              1
 GLOBAL| Basis set file name            /hppfs/scratch/04/di38fab/04_TMD/BASIS_A
 GLOBAL| Potential file name            /hppfs/work/pn36zo/di38fab/cp2k/data/ALL
 GLOBAL| MM Potential file name                                     MM_POTENTIAL
 GLOBAL| Coordinate file name                                      __STD_INPUT__
 GLOBAL| Method name                                                        CP2K
 GLOBAL| Project name                                                       MoS2
 GLOBAL| Run type                                                         ENERGY
 GLOBAL| FFT library                                                       FFTW3
 GLOBAL| Diagonalization library                                       ScaLAPACK
 GLOBAL| DGEMM library                                                      BLAS
 GLOBAL| Orthonormality check for eigenvectors                          DISABLED
 GLOBAL| Matrix multiplication library                                 ScaLAPACK
 GLOBAL| All-to-all communication in single precision                          F
 GLOBAL| FFTs using library dependent lengths                                  F
 GLOBAL| Grid backend                                                       AUTO
 GLOBAL| Global print level                                               MEDIUM
 GLOBAL| MPI I/O enabled                                                       T
 GLOBAL| Total number of message passing processes                           216
 GLOBAL| Number of threads for this process                                    4
 GLOBAL| This output is from process                                           0
 GLOBAL| OpenMP stack size per thread (OMP_STACKSIZE)                    default
 GLOBAL| CPU model name             Intel(R) Xeon(R) Platinum 8174 CPU @ 3.10GHz

 MEMORY| system memory details [Kb]
 MEMORY|                        rank 0           min           max       average
 MEMORY| MemTotal             98436664      98436660      98436708      98436672
 MEMORY| MemFree              83880572      83677696      84276124      83913213
 MEMORY| Buffers                     0             0             0             0
 MEMORY| Cached                2442252       2391564       2442252       2410401
 MEMORY| Slab                  1244936       1127416       1250324       1235002
 MEMORY| SReclaimable           276948        261396        287352        276402
 MEMORY| MemLikelyFree        86599772      86378268      86929084      86600016


 *** Fundamental physical constants (SI units) ***

 *** Literature: B. J. Mohr and B. N. Taylor,
 ***             CODATA recommended values of the fundamental physical
 ***             constants: 2006, Web Version 5.1
 ***             http://physics.nist.gov/constants

 Speed of light in vacuum [m/s]                             2.99792458000000E+08
 Magnetic constant or permeability of vacuum [N/A**2]       1.25663706143592E-06
 Electric constant or permittivity of vacuum [F/m]          8.85418781762039E-12
 Planck constant (h) [J*s]                                  6.62606896000000E-34
 Planck constant (h-bar) [J*s]                              1.05457162825177E-34
 Elementary charge [C]                                      1.60217648700000E-19
 Electron mass [kg]                                         9.10938215000000E-31
 Electron g factor [ ]                                     -2.00231930436220E+00
 Proton mass [kg]                                           1.67262163700000E-27
 Fine-structure constant                                    7.29735253760000E-03
 Rydberg constant [1/m]                                     1.09737315685270E+07
 Avogadro constant [1/mol]                                  6.02214179000000E+23
 Boltzmann constant [J/K]                                   1.38065040000000E-23
 Atomic mass unit [kg]                                      1.66053878200000E-27
 Bohr radius [m]                                            5.29177208590000E-11

 *** Conversion factors ***

 [u] -> [a.u.]                                              1.82288848426455E+03
 [Angstrom] -> [Bohr] = [a.u.]                              1.88972613288564E+00
 [a.u.] = [Bohr] -> [Angstrom]                              5.29177208590000E-01
 [a.u.] -> [s]                                              2.41888432650478E-17
 [a.u.] -> [fs]                                             2.41888432650478E-02
 [a.u.] -> [J]                                              4.35974393937059E-18
 [a.u.] -> [N]                                              8.23872205491840E-08
 [a.u.] -> [K]                                              3.15774647902944E+05
 [a.u.] -> [kJ/mol]                                         2.62549961709828E+03
 [a.u.] -> [kcal/mol]                                       6.27509468713739E+02
 [a.u.] -> [Pa]                                             2.94210107994716E+13
 [a.u.] -> [bar]                                            2.94210107994716E+08
 [a.u.] -> [atm]                                            2.90362800883016E+08
 [a.u.] -> [eV]                                             2.72113838565563E+01
 [a.u.] -> [Hz]                                             6.57968392072181E+15
 [a.u.] -> [1/cm] (wave numbers)                            2.19474631370540E+05
 [a.u./Bohr**2] -> [1/cm]                                   5.14048714338585E+03
 

 CELL_TOP| Volume [angstrom^3]:                                     27000.000000
 CELL_TOP| Vector a [angstrom    30.000     0.000     0.000   |a| =    30.000000
 CELL_TOP| Vector b [angstrom     0.000    30.000     0.000   |b| =    30.000000
 CELL_TOP| Vector c [angstrom     0.000     0.000    30.000   |c| =    30.000000
 CELL_TOP| Angle (b,c), alpha [degree]:                                90.000000
 CELL_TOP| Angle (a,c), beta  [degree]:                                90.000000
 CELL_TOP| Angle (a,b), gamma [degree]:                                90.000000
 CELL_TOP| Numerically orthorhombic:                                         YES
 CELL_TOP| Periodicity                                                      NONE

 GENERATE|  Preliminary Number of Bonds generated:                             0
 GENERATE|  Achieved consistency in connectivity generation.

 CELL| Volume [angstrom^3]:                                         27000.000000
 CELL| Vector a [angstrom]:      30.000     0.000     0.000   |a| =    30.000000
 CELL| Vector b [angstrom]:       0.000    30.000     0.000   |b| =    30.000000
 CELL| Vector c [angstrom]:       0.000     0.000    30.000   |c| =    30.000000
 CELL| Angle (b,c), alpha [degree]:                                    90.000000
 CELL| Angle (a,c), beta  [degree]:                                    90.000000
 CELL| Angle (a,b), gamma [degree]:                                    90.000000
 CELL| Numerically orthorhombic:                                             YES
 CELL| Periodicity                                                          NONE

 CELL_REF| Volume [angstrom^3]:                                     27000.000000
 CELL_REF| Vector a [angstrom    30.000     0.000     0.000   |a| =    30.000000
 CELL_REF| Vector b [angstrom     0.000    30.000     0.000   |b| =    30.000000
 CELL_REF| Vector c [angstrom     0.000     0.000    30.000   |c| =    30.000000
 CELL_REF| Angle (b,c), alpha [degree]:                                90.000000
 CELL_REF| Angle (a,c), beta  [degree]:                                90.000000
 CELL_REF| Angle (a,b), gamma [degree]:                                90.000000
 CELL_REF| Numerically orthorhombic:                                         YES
 CELL_REF| Periodicity                                                      NONE

 *******************************************************************************
 *******************************************************************************
 **                                                                           **
 **     #####                         ##              ##                      **
 **    ##   ##            ##          ##              ##                      **
 **   ##     ##                       ##            ######                    **
 **   ##     ##  ##   ##  ##   #####  ##  ##   ####   ##    #####    #####    **
 **   ##     ##  ##   ##  ##  ##      ## ##   ##      ##   ##   ##  ##   ##   **
 **   ##  ## ##  ##   ##  ##  ##      ####     ###    ##   ######   ######    **
 **    ##  ###   ##   ##  ##  ##      ## ##      ##   ##   ##       ##        **
 **     #######   #####   ##   #####  ##  ##  ####    ##    #####   ##        **
 **           ##                                                    ##        **
 **                                                                           **
 **                                                ... make the atoms dance   **
 **                                                                           **
 **            Copyright (C) by CP2K developers group (2000-2025)             **
 **                      J. Chem. Phys. 152, 194103 (2020)                    **
 **                                                                           **
 *******************************************************************************

 DFT| Spin restricted Kohn-Sham (RKS) calculation                            RKS
 DFT| Multiplicity                                                             1
 DFT| Number of spin states                                                    1
 DFT| Charge                                                                   0
 DFT| Self-interaction correction (SIC)                                       NO
 DFT| Cutoffs: density                                              1.000000E-10
 DFT|          gradient                                             1.000000E-10
 DFT|          tau                                                  1.000000E-10
 DFT|          cutoff_smoothing_range                               0.000000E+00
 DFT| XC density smoothing                                                  NONE
 DFT| XC derivatives                                                          PW

 FUNCTIONAL| PBE:
 FUNCTIONAL| J.P.Perdew, K.Burke, M.Ernzerhof, Phys. Rev. Letter, vol. 77, n 18,
 FUNCTIONAL|  pp. 3865-3868, (1996)sx=0.750sc=1.000{spin unpolarized}           


 QS| Method:                                                                GAPW
 QS| Density plane wave grid type                        NON-SPHERICAL FULLSPACE
 QS| Number of grid levels:                                                    4
 QS| Density cutoff [a.u.]:                                                250.0
 QS| Multi grid cutoff [a.u.]: 1) grid level                               250.0
 QS|                           2) grid level                                83.3
 QS|                           3) grid level                                27.8
 QS|                           4) grid level                                 9.3
 QS| Grid level progression factor:                                          3.0
 QS| Relative density cutoff [a.u.]:                                        50.0
 QS| Interaction thresholds: eps_pgf_orb:                                1.0E-12
 QS|                         eps_filter_matrix:                          0.0E+00
 QS|                         eps_core_charge:                            1.0E-14
 QS|                         eps_rho_gspace:                             1.0E-12
 QS|                         eps_rho_rspace:                             1.0E-12
 QS|                         eps_gvg_rspace:                             1.0E-06
 QS|                         eps_ppl:                                    1.0E-02
 QS|                         eps_ppnl:                                   1.0E-08
 QS| GAPW|      One center basis from orbital basis primitives
 QS| GAPW|                   eps_fit:                                    1.0E-04
 QS| GAPW|                   eps_iso:                                    1.0E-12
 QS| GAPW|                   eps_svd:                                    1.0E-08
 QS| GAPW|                   eps_cpc:                                    1.0E-12
 QS| GAPW|   atom-r-grid: quadrature:                                     GC_LOG
 QS| GAPW|      atom-s-grid:  max l :                                          8
 QS| GAPW|      max_l_rho0 :                                                   2


 ATOMIC KIND INFORMATION

  1. Atomic kind: N                                     Number of atoms:       2

     Orbital Basis Set                                       QZVPP-MOLOPT-GGA-ae

       Number of orbital shell sets:                                           3
       Number of orbital shells:                                              17
       Number of primitive Cartesian functions:                               17
       Number of Cartesian basis functions:                                   72
       Number of spherical basis functions:                                   57
       Norm type:                                                              2

       Normalised Cartesian orbitals:

                        Set   Shell   Orbital            Exponent    Coefficient

                          1       1    1s                3.078975       0.471387
                                                         0.958725       0.329427
                                                         0.342396       0.076840
                                                         0.116527       0.020840

                          1       2    2s                3.078975      -1.984655
                                                         0.958725       0.530711
                                                         0.342396      -0.223153
                                                         0.116527       0.138394

                          1       3    3s                3.078975      -0.480624
                                                         0.958725      -0.269073
                                                         0.342396       0.254041
                                                         0.116527       0.074304

                          1       4    4s                3.078975       1.789697
                                                         0.958725      -0.449645
                                                         0.342396      -0.246057
                                                         0.116527       0.183258

                          1       5    2px               3.078975       1.131168
                                                         0.958725       0.492999
                                                         0.342396       0.209759
                                                         0.116527       0.005234
                          1       5    2py               3.078975       1.131168
                                                         0.958725       0.492999
                                                         0.342396       0.209759
                                                         0.116527       0.005234
                          1       5    2pz               3.078975       1.131168
                                                         0.958725       0.492999
                                                         0.342396       0.209759
                                                         0.116527       0.005234

                          1       6    3px               3.078975       1.567373
                                                         0.958725      -1.149685
                                                         0.342396       0.140557
                                                         0.116527       0.082729
                          1       6    3py               3.078975       1.567373
                                                         0.958725      -1.149685
                                                         0.342396       0.140557
                                                         0.116527       0.082729
                          1       6    3pz               3.078975       1.567373
                                                         0.958725      -1.149685
                                                         0.342396       0.140557
                                                         0.116527       0.082729

                          1       7    4px               3.078975      -2.195592
                                                         0.958725       1.012184
                                                         0.342396      -0.170775
                                                         0.116527       0.103641
                          1       7    4py               3.078975      -2.195592
                                                         0.958725       1.012184
                                                         0.342396      -0.170775
                                                         0.116527       0.103641
                          1       7    4pz               3.078975      -2.195592
                                                         0.958725       1.012184
                                                         0.342396      -0.170775
                                                         0.116527       0.103641

                          1       8    3dx2              3.078975       6.708179
                                                         0.958725       0.705638
                                                         0.342396      -0.004195
                                                         0.116527       0.012825
                          1       8    3dxy              3.078975      11.618907
                                                         0.958725       1.222201
                                                         0.342396      -0.007266
                                                         0.116527       0.022213
                          1       8    3dxz              3.078975      11.618907
                                                         0.958725       1.222201
                                                         0.342396      -0.007266
                                                         0.116527       0.022213
                          1       8    3dy2              3.078975       6.708179
                                                         0.958725       0.705638
                                                         0.342396      -0.004195
                                                         0.116527       0.012825
                          1       8    3dyz              3.078975      11.618907
                                                         0.958725       1.222201
                                                         0.342396      -0.007266
                                                         0.116527       0.022213
                          1       8    3dz2              3.078975       6.708179
                                                         0.958725       0.705638
                                                         0.342396      -0.004195
                                                         0.116527       0.012825

                          1       9    4dx2              3.078975     -10.578944
                                                         0.958725       1.765132
                                                         0.342396       0.012917
                                                         0.116527      -0.002345
                          1       9    4dxy              3.078975     -18.323269
                                                         0.958725       3.057299
                                                         0.342396       0.022374
                                                         0.116527      -0.004062
                          1       9    4dxz              3.078975     -18.323269
                                                         0.958725       3.057299
                                                         0.342396       0.022374
                                                         0.116527      -0.004062
                          1       9    4dy2              3.078975     -10.578944
                                                         0.958725       1.765132
                                                         0.342396       0.012917
                                                         0.116527      -0.002345
                          1       9    4dyz              3.078975     -18.323269
                                                         0.958725       3.057299
                                                         0.342396       0.022374
                                                         0.116527      -0.004062
                          1       9    4dz2              3.078975     -10.578944
                                                         0.958725       1.765132
                                                         0.342396       0.012917
                                                         0.116527      -0.002345

                          1      10    5dx2              3.078975       1.870495
                                                         0.958725       0.092277
                                                         0.342396       0.268667
                                                         0.116527      -0.011475
                          1      10    5dxy              3.078975       3.239793
                                                         0.958725       0.159828
                                                         0.342396       0.465344
                                                         0.116527      -0.019875
                          1      10    5dxz              3.078975       3.239793
                                                         0.958725       0.159828
                                                         0.342396       0.465344
                                                         0.116527      -0.019875
                          1      10    5dy2              3.078975       1.870495
                                                         0.958725       0.092277
                                                         0.342396       0.268667
                                                         0.116527      -0.011475
                          1      10    5dyz              3.078975       3.239793
                                                         0.958725       0.159828
                                                         0.342396       0.465344
                                                         0.116527      -0.019875
                          1      10    5dz2              3.078975       1.870495
                                                         0.958725       0.092277
                                                         0.342396       0.268667
                                                         0.116527      -0.011475

                          1      11    4fx3              3.078975       9.663284
                                                         0.958725       0.743501
                                                         0.342396       0.018818
                                                         0.116527       0.000449
                          1      11    4fx2y             3.078975      21.607761
                                                         0.958725       1.662520
                                                         0.342396       0.042079
                                                         0.116527       0.001004
                          1      11    4fx2z             3.078975      21.607761
                                                         0.958725       1.662520
                                                         0.342396       0.042079
                                                         0.116527       0.001004
                          1      11    4fxy2             3.078975      21.607761
                                                         0.958725       1.662520
                                                         0.342396       0.042079
                                                         0.116527       0.001004
                          1      11    4fxyz             3.078975      37.425739
                                                         0.958725       2.879568
                                                         0.342396       0.072882
                                                         0.116527       0.001739
                          1      11    4fxz2             3.078975      21.607761
                                                         0.958725       1.662520
                                                         0.342396       0.042079
                                                         0.116527       0.001004
                          1      11    4fy3              3.078975       9.663284
                                                         0.958725       0.743501
                                                         0.342396       0.018818
                                                         0.116527       0.000449
                          1      11    4fy2z             3.078975      21.607761
                                                         0.958725       1.662520
                                                         0.342396       0.042079
                                                         0.116527       0.001004
                          1      11    4fyz2             3.078975      21.607761
                                                         0.958725       1.662520
                                                         0.342396       0.042079
                                                         0.116527       0.001004
                          1      11    4fz3              3.078975       9.663284
                                                         0.958725       0.743501
                                                         0.342396       0.018818
                                                         0.116527       0.000449

                          1      12    5fx3              3.078975     -12.306115
                                                         0.958725       0.615643
                                                         0.342396       0.096113
                                                         0.116527      -0.003385
                          1      12    5fx2y             3.078975     -27.517309
                                                         0.958725       1.376620
                                                         0.342396       0.214914
                                                         0.116527      -0.007569
                          1      12    5fx2z             3.078975     -27.517309
                                                         0.958725       1.376620
                                                         0.342396       0.214914
                                                         0.116527      -0.007569
                          1      12    5fxy2             3.078975     -27.517309
                                                         0.958725       1.376620
                                                         0.342396       0.214914
                                                         0.116527      -0.007569
                          1      12    5fxyz             3.078975     -47.661377
                                                         0.958725       2.384376
                                                         0.342396       0.372243
                                                         0.116527      -0.013110
                          1      12    5fxz2             3.078975     -27.517309
                                                         0.958725       1.376620
                                                         0.342396       0.214914
                                                         0.116527      -0.007569
                          1      12    5fy3              3.078975     -12.306115
                                                         0.958725       0.615643
                                                         0.342396       0.096113
                                                         0.116527      -0.003385
                          1      12    5fy2z             3.078975     -27.517309
                                                         0.958725       1.376620
                                                         0.342396       0.214914
                                                         0.116527      -0.007569
                          1      12    5fyz2             3.078975     -27.517309
                                                         0.958725       1.376620
                                                         0.342396       0.214914
                                                         0.116527      -0.007569
                          1      12    5fz3              3.078975     -12.306115
                                                         0.958725       0.615643
                                                         0.342396       0.096113
                                                         0.116527      -0.003385

                          1      13    5gx4              3.078975      14.038179
                                                         0.958725       0.597037
                                                         0.342396       0.001828
                                                         0.116527       0.000070
                          1      13    5gx3y             3.078975      37.141531
                                                         0.958725       1.579612
                                                         0.342396       0.004837
                                                         0.116527       0.000185
                          1      13    5gx3z             3.078975      37.141531
                                                         0.958725       1.579612
                                                         0.342396       0.004837
                                                         0.116527       0.000185
                          1      13    5gx2y2            3.078975      47.949511
                                                         0.958725       2.039270
                                                         0.342396       0.006245
                                                         0.116527       0.000239
                          1      13    5gx2yz            3.078975      83.050989
                                                         0.958725       3.532119
                                                         0.342396       0.010817
                                                         0.116527       0.000415
                          1      13    5gx2z2            3.078975      47.949511
                                                         0.958725       2.039270
                                                         0.342396       0.006245
                                                         0.116527       0.000239
                          1      13    5gxy3             3.078975      37.141531
                                                         0.958725       1.579612
                                                         0.342396       0.004837
                                                         0.116527       0.000185
                          1      13    5gxy2z            3.078975      83.050989
                                                         0.958725       3.532119
                                                         0.342396       0.010817
                                                         0.116527       0.000415
                          1      13    5gxyz2            3.078975      83.050989
                                                         0.958725       3.532119
                                                         0.342396       0.010817
                                                         0.116527       0.000415
                          1      13    5gxz3             3.078975      37.141531
                                                         0.958725       1.579612
                                                         0.342396       0.004837
                                                         0.116527       0.000185
                          1      13    5gy4              3.078975      14.038179
                                                         0.958725       0.597037
                                                         0.342396       0.001828
                                                         0.116527       0.000070
                          1      13    5gy3z             3.078975      37.141531
                                                         0.958725       1.579612
                                                         0.342396       0.004837
                                                         0.116527       0.000185
                          1      13    5gy2z2            3.078975      47.949511
                                                         0.958725       2.039270
                                                         0.342396       0.006245
                                                         0.116527       0.000239
                          1      13    5gyz3             3.078975      37.141531
                                                         0.958725       1.579612
                                                         0.342396       0.004837
                                                         0.116527       0.000185
                          1      13    5gz4              3.078975      14.038179
                                                         0.958725       0.597037
                                                         0.342396       0.001828
                                                         0.116527       0.000070

                          2       1    1s              150.054989      -2.526131
                                                        35.436137       9.342415
                                                        11.100778       1.083351
                                                         4.398041      -0.233582
                                                         1.856393       0.014287

                          2       2    2s              150.054989       1.065362
                                                        35.436137      -0.346408
                                                        11.100778       1.604432
                                                         4.398041       1.225545
                                                         1.856393       0.149961

                          2       3    2px             150.054989      -4.969176
                                                        35.436137      -5.527181
                                                        11.100778      -7.063688
                                                         4.398041      -2.785766
                                                         1.856393      -1.724211
                          2       3    2py             150.054989      -4.969176
                                                        35.436137      -5.527181
                                                        11.100778      -7.063688
                                                         4.398041      -2.785766
                                                         1.856393      -1.724211
                          2       3    2pz             150.054989      -4.969176
                                                        35.436137      -5.527181
                                                        11.100778      -7.063688
                                                         4.398041      -2.785766
                                                         1.856393      -1.724211

                          3       1    1s            90726.878012      -0.218783
                                                     13590.341075       1.380048
                                                      3092.944603       1.488896
                                                       875.922362       3.287868
                                                       285.804692       3.688593
                                                       103.111342       5.825292
                                                        40.167480       2.629499
                                                        16.675305       3.229475

     RI Auxiliary Basis Set                                    aug-cc-pV5Z-OPTRI

       Number of orbital shell sets:                                          22
       Number of orbital shells:                                              22
       Number of primitive Cartesian functions:                               22
       Number of Cartesian basis functions:                                  188
       Number of spherical basis functions:                                  122
       Norm type:                                                              2

       Normalised Cartesian orbitals:

                        Set   Shell   Orbital            Exponent    Coefficient

                          1       1    1gx4              0.134828       0.004501
                          1       1    1gx3y             0.134828       0.011909
                          1       1    1gx3z             0.134828       0.011909
                          1       1    1gx2y2            0.134828       0.015375
                          1       1    1gx2yz            0.134828       0.026630
                          1       1    1gx2z2            0.134828       0.015375
                          1       1    1gxy3             0.134828       0.011909
                          1       1    1gxy2z            0.134828       0.026630
                          1       1    1gxyz2            0.134828       0.026630
                          1       1    1gxz3             0.134828       0.011909
                          1       1    1gy4              0.134828       0.004501
                          1       1    1gy3z             0.134828       0.011909
                          1       1    1gy2z2            0.134828       0.015375
                          1       1    1gyz3             0.134828       0.011909
                          1       1    1gz4              0.134828       0.004501

                          2       1    1px               0.159639       0.143835
                          2       1    1py               0.159639       0.143835
                          2       1    1pz               0.159639       0.143835

                          3       1    1s                0.209162       0.220431

                          4       1    1px               0.436875       0.506275
                          4       1    1py               0.436875       0.506275
                          4       1    1pz               0.436875       0.506275

                          5       1    1hx5              0.527568       0.092843
                          5       1    1hx4y             0.527568       0.278529
                          5       1    1hx4z             0.527568       0.278529
                          5       1    1hx3y2            0.527568       0.425460
                          5       1    1hx3yz            0.527568       0.736918
                          5       1    1hx3z2            0.527568       0.425460
                          5       1    1hx2y3            0.527568       0.425460
                          5       1    1hx2y2z           0.527568       0.951358
                          5       1    1hx2yz2           0.527568       0.951358
                          5       1    1hx2z3            0.527568       0.425460
                          5       1    1hxy4             0.527568       0.278529
                          5       1    1hxy3z            0.527568       0.736918
                          5       1    1hxy2z2           0.527568       0.951358
                          5       1    1hxyz3            0.527568       0.736918
                          5       1    1hxz4             0.527568       0.278529
                          5       1    1hy5              0.527568       0.092843
                          5       1    1hy4z             0.527568       0.278529
                          5       1    1hy3z2            0.527568       0.425460
                          5       1    1hy2z3            0.527568       0.425460
                          5       1    1hyz4             0.527568       0.278529
                          5       1    1hz5              0.527568       0.092843

                          6       1    1s                0.530900       0.443271

                          7       1    1fx3              0.738473       0.744230
                          7       1    1fx2y             0.738473       1.664150
                          7       1    1fx2z             0.738473       1.664150
                          7       1    1fxy2             0.738473       1.664150
                          7       1    1fxyz             0.738473       2.882392
                          7       1    1fxz2             0.738473       1.664150
                          7       1    1fy3              0.738473       0.744230
                          7       1    1fy2z             0.738473       1.664150
                          7       1    1fyz2             0.738473       1.664150
                          7       1    1fz3              0.738473       0.744230

                          8       1    1px               1.004026       1.432588
                          8       1    1py               1.004026       1.432588
                          8       1    1pz               1.004026       1.432588

                          9       1    1dx2              1.119820       2.006406
                          9       1    1dxy              1.119820       3.475197
                          9       1    1dxz              1.119820       3.475197
                          9       1    1dy2              1.119820       2.006406
                          9       1    1dyz              1.119820       3.475197
                          9       1    1dz2              1.119820       2.006406

                         10       1    1s                1.393963       0.914321

                         11       1    1gx4              1.404119       2.830064
                         11       1    1gx3y             1.404119       7.487644
                         11       1    1gx3z             1.404119       7.487644
                         11       1    1gx2y2            1.404119       9.666507
                         11       1    1gx2yz            1.404119      16.742882
                         11       1    1gx2z2            1.404119       9.666507
                         11       1    1gxy3             1.404119       7.487644
                         11       1    1gxy2z            1.404119      16.742882
                         11       1    1gxyz2            1.404119      16.742882
                         11       1    1gxz3             1.404119       7.487644
                         11       1    1gy4              1.404119       2.830064
                         11       1    1gy3z             1.404119       7.487644
                         11       1    1gy2z2            1.404119       9.666507
                         11       1    1gyz3             1.404119       7.487644
                         11       1    1gz4              1.404119       2.830064

                         12       1    1fx3              1.802390       5.541332
                         12       1    1fx2y             1.802390      12.390795
                         12       1    1fx2z             1.802390      12.390795
                         12       1    1fxy2             1.802390      12.390795
                         12       1    1fxyz             1.802390      21.461487
                         12       1    1fxz2             1.802390      12.390795
                         12       1    1fy3              1.802390       5.541332
                         12       1    1fy2z             1.802390      12.390795
                         12       1    1fyz2             1.802390      12.390795
                         12       1    1fz3              1.802390       5.541332

                         13       1    1ix6              1.941471       5.384789
                         13       1    1ix5y             1.941471      17.859326
                         13       1    1ix5z             1.941471      17.859326
                         13       1    1ix4y2            1.941471      30.933260
                         13       1    1ix4yz            1.941471      53.577978
                         13       1    1ix4z2            1.941471      30.933260
                         13       1    1ix3y3            1.941471      36.600727
                         13       1    1ix3y2z           1.941471      81.841714
                         13       1    1ix3yz2           1.941471      81.841714
                         13       1    1ix3z3            1.941471      36.600727
                         13       1    1ix2y4            1.941471      30.933260
                         13       1    1ix2y3z           1.941471      81.841714
                         13       1    1ix2y2z2          1.941471     105.657198
                         13       1    1ix2yz3           1.941471      81.841714
                         13       1    1ix2z4            1.941471      30.933260
                         13       1    1ixy5             1.941471      17.859326
                         13       1    1ixy4z            1.941471      53.577978
                         13       1    1ixy3z2           1.941471      81.841714
                         13       1    1ixy2z3           1.941471      81.841714
                         13       1    1ixyz4            1.941471      53.577978
                         13       1    1ixz5             1.941471      17.859326
                         13       1    1iy6              1.941471       5.384789
                         13       1    1iy5z             1.941471      17.859326
                         13       1    1iy4z2            1.941471      30.933260
                         13       1    1iy3z3            1.941471      36.600727
                         13       1    1iy2z4            1.941471      30.933260
                         13       1    1iyz5             1.941471      17.859326
                         13       1    1iz6              1.941471       5.384789

                         14       1    1px               2.643998       4.805809
                         14       1    1py               2.643998       4.805809
                         14       1    1pz               2.643998       4.805809

                         15       1    1dx2              3.091394      11.862592
                         15       1    1dxy              3.091394      20.546612
                         15       1    1dxz              3.091394      20.546612
                         15       1    1dy2              3.091394      11.862592
                         15       1    1dyz              3.091394      20.546612
                         15       1    1dz2              3.091394      11.862592

                         16       1    1hx5              3.455251      41.725627
                         16       1    1hx4y             3.455251     125.176881
                         16       1    1hx4z             3.455251     125.176881
                         16       1    1hx3y2            3.455251     191.210844
                         16       1    1hx3yz            3.455251     331.186896
                         16       1    1hx3z2            3.455251     191.210844
                         16       1    1hx2y3            3.455251     191.210844
                         16       1    1hx2y2z           3.455251     427.560445
                         16       1    1hx2yz2           3.455251     427.560445
                         16       1    1hx2z3            3.455251     191.210844
                         16       1    1hxy4             3.455251     125.176881
                         16       1    1hxy3z            3.455251     331.186896
                         16       1    1hxy2z2           3.455251     427.560445
                         16       1    1hxyz3            3.455251     331.186896
                         16       1    1hxz4             3.455251     125.176881
                         16       1    1hy5              3.455251      41.725627
                         16       1    1hy4z             3.455251     125.176881
                         16       1    1hy3z2            3.455251     191.210844
                         16       1    1hy2z3            3.455251     191.210844
                         16       1    1hyz4             3.455251     125.176881
                         16       1    1hz5              3.455251      41.725627

                         17       1    1gx4              5.019491      94.026343
                         17       1    1gx3y             5.019491     248.770320
                         17       1    1gx3z             5.019491     248.770320
                         17       1    1gx2y2            5.019491     321.161102
                         17       1    1gx2yz            5.019491     556.267347
                         17       1    1gx2z2            5.019491     321.161102
                         17       1    1gxy3             5.019491     248.770320
                         17       1    1gxy2z            5.019491     556.267347
                         17       1    1gxyz2            5.019491     556.267347
                         17       1    1gxz3             5.019491     248.770320
                         17       1    1gy4              5.019491      94.026343
                         17       1    1gy3z             5.019491     248.770320
                         17       1    1gy2z2            5.019491     321.161102
                         17       1    1gyz3             5.019491     248.770320
                         17       1    1gz4              5.019491      94.026343

                         18       1    1s                6.323282       2.841954

                         19       1    1px               6.613928      15.118699
                         19       1    1py               6.613928      15.118699
                         19       1    1pz               6.613928      15.118699

                         20       1    1dx2              6.959399      49.080615
                         20       1    1dxy              6.959399      85.010119
                         20       1    1dxz              6.959399      85.010119
                         20       1    1dy2              6.959399      49.080615
                         20       1    1dyz              6.959399      85.010119
                         20       1    1dz2              6.959399      49.080615

                         21       1    1fx3              7.060014     119.609855
                         21       1    1fx2y             7.060014     267.455767
                         21       1    1fx2z             7.060014     267.455767
                         21       1    1fxy2             7.060014     267.455767
                         21       1    1fxyz             7.060014     463.246977
                         21       1    1fxz2             7.060014     267.455767
                         21       1    1fy3              7.060014     119.609855
                         21       1    1fy2z             7.060014     267.455767
                         21       1    1fyz2             7.060014     267.455767
                         21       1    1fz3              7.060014     119.609855

                         22       1    1dx2             13.517160     156.840783
                         22       1    1dxy             13.517160     271.656205
                         22       1    1dxz             13.517160     271.656205
                         22       1    1dy2             13.517160     156.840783
                         22       1    1dyz             13.517160     271.656205
                         22       1    1dz2             13.517160     156.840783

       Atomic covalent radius [Angstrom]:                                  0.750

       Atomic van der Waals radius [Angstrom]:                             1.550

     The atoms of this atomic kind are PAW atoms (GAPW):
       Hard Gaussian function radius:                                      1.512
       Rho0 radius:                                                        1.512
       Maximum GTO radius used for PAW projector construction:            24.566

     GAPW Soft Basis Set                                QZVPP-MOLOPT-GGA-ae_soft

       Number of orbital shell sets:                                           3
       Number of orbital shells:                                              17
       Number of primitive Cartesian functions:                                5
       Number of Cartesian basis functions:                                   72
       Number of spherical basis functions:                                   57
       Norm type:                                                              2

       Normalised Cartesian orbitals:

                        Set   Shell   Orbital            Exponent    Coefficient

                          1       1    1s                3.078975       0.471387
                                                         0.958725       0.329427
                                                         0.342396       0.076840
                                                         0.116527       0.020840

                          1       2    2s                3.078975      -1.984655
                                                         0.958725       0.530711
                                                         0.342396      -0.223153
                                                         0.116527       0.138394

                          1       3    3s                3.078975      -0.480624
                                                         0.958725      -0.269073
                                                         0.342396       0.254041
                                                         0.116527       0.074304

                          1       4    4s                3.078975       1.789697
                                                         0.958725      -0.449645
                                                         0.342396      -0.246057
                                                         0.116527       0.183258

                          1       5    2px               3.078975       1.131168
                                                         0.958725       0.492999
                                                         0.342396       0.209759
                                                         0.116527       0.005234
                          1       5    2py               3.078975       1.131168
                                                         0.958725       0.492999
                                                         0.342396       0.209759
                                                         0.116527       0.005234
                          1       5    2pz               3.078975       1.131168
                                                         0.958725       0.492999
                                                         0.342396       0.209759
                                                         0.116527       0.005234

                          1       6    3px               3.078975       1.567373
                                                         0.958725      -1.149685
                                                         0.342396       0.140557
                                                         0.116527       0.082729
                          1       6    3py               3.078975       1.567373
                                                         0.958725      -1.149685
                                                         0.342396       0.140557
                                                         0.116527       0.082729
                          1       6    3pz               3.078975       1.567373
                                                         0.958725      -1.149685
                                                         0.342396       0.140557
                                                         0.116527       0.082729

                          1       7    4px               3.078975      -2.195592
                                                         0.958725       1.012184
                                                         0.342396      -0.170775
                                                         0.116527       0.103641
                          1       7    4py               3.078975      -2.195592
                                                         0.958725       1.012184
                                                         0.342396      -0.170775
                                                         0.116527       0.103641
                          1       7    4pz               3.078975      -2.195592
                                                         0.958725       1.012184
                                                         0.342396      -0.170775
                                                         0.116527       0.103641

                          1       8    3dx2              3.078975       6.708179
                                                         0.958725       0.705638
                                                         0.342396      -0.004195
                                                         0.116527       0.012825
                          1       8    3dxy              3.078975      11.618907
                                                         0.958725       1.222201
                                                         0.342396      -0.007266
                                                         0.116527       0.022213
                          1       8    3dxz              3.078975      11.618907
                                                         0.958725       1.222201
                                                         0.342396      -0.007266
                                                         0.116527       0.022213
                          1       8    3dy2              3.078975       6.708179
                                                         0.958725       0.705638
                                                         0.342396      -0.004195
                                                         0.116527       0.012825
                          1       8    3dyz              3.078975      11.618907
                                                         0.958725       1.222201
                                                         0.342396      -0.007266
                                                         0.116527       0.022213
                          1       8    3dz2              3.078975       6.708179
                                                         0.958725       0.705638
                                                         0.342396      -0.004195
                                                         0.116527       0.012825

                          1       9    4dx2              3.078975     -10.578944
                                                         0.958725       1.765132
                                                         0.342396       0.012917
                                                         0.116527      -0.002345
                          1       9    4dxy              3.078975     -18.323269
                                                         0.958725       3.057299
                                                         0.342396       0.022374
                                                         0.116527      -0.004062
                          1       9    4dxz              3.078975     -18.323269
                                                         0.958725       3.057299
                                                         0.342396       0.022374
                                                         0.116527      -0.004062
                          1       9    4dy2              3.078975     -10.578944
                                                         0.958725       1.765132
                                                         0.342396       0.012917
                                                         0.116527      -0.002345
                          1       9    4dyz              3.078975     -18.323269
                                                         0.958725       3.057299
                                                         0.342396       0.022374
                                                         0.116527      -0.004062
                          1       9    4dz2              3.078975     -10.578944
                                                         0.958725       1.765132
                                                         0.342396       0.012917
                                                         0.116527      -0.002345

                          1      10    5dx2              3.078975       1.870495
                                                         0.958725       0.092277
                                                         0.342396       0.268667
                                                         0.116527      -0.011475
                          1      10    5dxy              3.078975       3.239793
                                                         0.958725       0.159828
                                                         0.342396       0.465344
                                                         0.116527      -0.019875
                          1      10    5dxz              3.078975       3.239793
                                                         0.958725       0.159828
                                                         0.342396       0.465344
                                                         0.116527      -0.019875
                          1      10    5dy2              3.078975       1.870495
                                                         0.958725       0.092277
                                                         0.342396       0.268667
                                                         0.116527      -0.011475
                          1      10    5dyz              3.078975       3.239793
                                                         0.958725       0.159828
                                                         0.342396       0.465344
                                                         0.116527      -0.019875
                          1      10    5dz2              3.078975       1.870495
                                                         0.958725       0.092277
                                                         0.342396       0.268667
                                                         0.116527      -0.011475

                          1      11    4fx3              3.078975       9.663284
                                                         0.958725       0.743501
                                                         0.342396       0.018818
                                                         0.116527       0.000449
                          1      11    4fx2y             3.078975      21.607761
                                                         0.958725       1.662520
                                                         0.342396       0.042079
                                                         0.116527       0.001004
                          1      11    4fx2z             3.078975      21.607761
                                                         0.958725       1.662520
                                                         0.342396       0.042079
                                                         0.116527       0.001004
                          1      11    4fxy2             3.078975      21.607761
                                                         0.958725       1.662520
                                                         0.342396       0.042079
                                                         0.116527       0.001004
                          1      11    4fxyz             3.078975      37.425739
                                                         0.958725       2.879568
                                                         0.342396       0.072882
                                                         0.116527       0.001739
                          1      11    4fxz2             3.078975      21.607761
                                                         0.958725       1.662520
                                                         0.342396       0.042079
                                                         0.116527       0.001004
                          1      11    4fy3              3.078975       9.663284
                                                         0.958725       0.743501
                                                         0.342396       0.018818
                                                         0.116527       0.000449
                          1      11    4fy2z             3.078975      21.607761
                                                         0.958725       1.662520
                                                         0.342396       0.042079
                                                         0.116527       0.001004
                          1      11    4fyz2             3.078975      21.607761
                                                         0.958725       1.662520
                                                         0.342396       0.042079
                                                         0.116527       0.001004
                          1      11    4fz3              3.078975       9.663284
                                                         0.958725       0.743501
                                                         0.342396       0.018818
                                                         0.116527       0.000449

                          1      12    5fx3              3.078975     -12.306115
                                                         0.958725       0.615643
                                                         0.342396       0.096113
                                                         0.116527      -0.003385
                          1      12    5fx2y             3.078975     -27.517309
                                                         0.958725       1.376620
                                                         0.342396       0.214914
                                                         0.116527      -0.007569
                          1      12    5fx2z             3.078975     -27.517309
                                                         0.958725       1.376620
                                                         0.342396       0.214914
                                                         0.116527      -0.007569
                          1      12    5fxy2             3.078975     -27.517309
                                                         0.958725       1.376620
                                                         0.342396       0.214914
                                                         0.116527      -0.007569
                          1      12    5fxyz             3.078975     -47.661377
                                                         0.958725       2.384376
                                                         0.342396       0.372243
                                                         0.116527      -0.013110
                          1      12    5fxz2             3.078975     -27.517309
                                                         0.958725       1.376620
                                                         0.342396       0.214914
                                                         0.116527      -0.007569
                          1      12    5fy3              3.078975     -12.306115
                                                         0.958725       0.615643
                                                         0.342396       0.096113
                                                         0.116527      -0.003385
                          1      12    5fy2z             3.078975     -27.517309
                                                         0.958725       1.376620
                                                         0.342396       0.214914
                                                         0.116527      -0.007569
                          1      12    5fyz2             3.078975     -27.517309
                                                         0.958725       1.376620
                                                         0.342396       0.214914
                                                         0.116527      -0.007569
                          1      12    5fz3              3.078975     -12.306115
                                                         0.958725       0.615643
                                                         0.342396       0.096113
                                                         0.116527      -0.003385

                          1      13    5gx4              3.078975      14.038179
                                                         0.958725       0.597037
                                                         0.342396       0.001828
                                                         0.116527       0.000070
                          1      13    5gx3y             3.078975      37.141531
                                                         0.958725       1.579612
                                                         0.342396       0.004837
                                                         0.116527       0.000185
                          1      13    5gx3z             3.078975      37.141531
                                                         0.958725       1.579612
                                                         0.342396       0.004837
                                                         0.116527       0.000185
                          1      13    5gx2y2            3.078975      47.949511
                                                         0.958725       2.039270
                                                         0.342396       0.006245
                                                         0.116527       0.000239
                          1      13    5gx2yz            3.078975      83.050989
                                                         0.958725       3.532119
                                                         0.342396       0.010817
                                                         0.116527       0.000415
                          1      13    5gx2z2            3.078975      47.949511
                                                         0.958725       2.039270
                                                         0.342396       0.006245
                                                         0.116527       0.000239
                          1      13    5gxy3             3.078975      37.141531
                                                         0.958725       1.579612
                                                         0.342396       0.004837
                                                         0.116527       0.000185
                          1      13    5gxy2z            3.078975      83.050989
                                                         0.958725       3.532119
                                                         0.342396       0.010817
                                                         0.116527       0.000415
                          1      13    5gxyz2            3.078975      83.050989
                                                         0.958725       3.532119
                                                         0.342396       0.010817
                                                         0.116527       0.000415
                          1      13    5gxz3             3.078975      37.141531
                                                         0.958725       1.579612
                                                         0.342396       0.004837
                                                         0.116527       0.000185
                          1      13    5gy4              3.078975      14.038179
                                                         0.958725       0.597037
                                                         0.342396       0.001828
                                                         0.116527       0.000070
                          1      13    5gy3z             3.078975      37.141531
                                                         0.958725       1.579612
                                                         0.342396       0.004837
                                                         0.116527       0.000185
                          1      13    5gy2z2            3.078975      47.949511
                                                         0.958725       2.039270
                                                         0.342396       0.006245
                                                         0.116527       0.000239
                          1      13    5gyz3             3.078975      37.141531
                                                         0.958725       1.579612
                                                         0.342396       0.004837
                                                         0.116527       0.000185
                          1      13    5gz4              3.078975      14.038179
                                                         0.958725       0.597037
                                                         0.342396       0.001828
                                                         0.116527       0.000070

                          2       1    1s                1.856393       0.014287

                          2       2    2s                1.856393       0.149961

                          2       3    2px               1.856393      -1.724211
                          2       3    2py               1.856393      -1.724211
                          2       3    2pz               1.856393      -1.724211

                          3       1    1s         

     AE Potential information for                                            ALL

       Description:                                       All-electron potential
                                          Krack, Parrinello, PCCP 2, 2105 (2000)

       Gaussian exponent of the core charge distribution:               5.979100
       Electronic configuration (s p d ...):                           4   3   0

  2. Atomic kind: H                                     Number of atoms:       8

     Orbital Basis Set                                       QZVPP-MOLOPT-GGA-ae

       Number of orbital shell sets:                                           2
       Number of orbital shells:                                              10
       Number of primitive Cartesian functions:                                8
[...]
 Gaussian Basis Sets.
 https://doi.org/10.1021/ct900494g

 M. Guidon, F. Schiffmann, J. Hutter, J. VandeVondele.
 J. Chem. Phys. 128, 214104 (2008).
 Ab initio molecular dynamics using hybrid density functionals.
 https://doi.org/10.1063/1.2931945

 L. Genovese, T. Deutsch, S. Goedecker.
 J. Chem. Phys. 127, 054704 (2007).
 Efficient and accurate three-dimensional Poisson solver for surface problems.
 https://doi.org/10.1063/1.2754685

 J. VandeVondele, J. Hutter.
 J. Chem. Phys. 127, 114105 (2007).
 Gaussian basis sets for accurate calculations on molecular systems in gas and 
 condensed phases.
 https://doi.org/10.1063/1.2770708

 L. Genovese, T. Deutsch, A. Neelov, S. Goedecker, G. Beylkin.
 J. Chem. Phys. 125, 074105 (2006).
 Efficient solution of Poisson's equation with free boundary conditions.
 https://doi.org/10.1063/1.2335442

 M. Iannuzzi, T. Chassaing, T. Wallman, J. Hutter.
 CHIMIA 59, 499-503 (2005).
 Ground and excited state density functional calculations with the Gaussian and 
 augmented-plane-wave method.
 https://doi.org/10.2533/000942905777676164

 M. Frigo, S. G. Johnson.
 Proc. IEEE 93, 216-231 (2005).
 The design and implementation of FFTW3.
 https://doi.org/10.1109/JPROC.2004.840301

 R. L. Martin.
 J. Chem. Phys. 118, 4775-4777 (2003).
 Natural transition orbitals.
 https://doi.org/10.1063/1.1558471

 M. Krack, M. Parrinello.
 Phys. Chem. Chem. Phys. 2, 2105-2112 (2000).
 All-electron ab-initio molecular dynamics.
 https://doi.org/10.1039/b001167n

 G. Lippert, J. Hutter, M. Parrinello.
 Theor. Chem. Acc. 103, 124-140 (1999).
 The Gaussian and augmented-plane-wave density functional method for ab initio 
 molecular dynamics simulations.
 https://doi.org/10.1007/s002140050523

 J. P. Perdew, K. Burke, M. Ernzerhof.
 Phys. Rev. Lett. 77, 3865-3868 (1996).
 Generalized gradient approximation made simple.
 https://doi.org/10.1103/PhysRevLett.77.3865


 -------------------------------------------------------------------------------
 -                                                                             -
 -                                T I M I N G                                  -
 -                                                                             -
 -------------------------------------------------------------------------------
 SUBROUTINE                       CALLS  ASD         SELF TIME        TOTAL TIME
                                MAXIMUM       AVERAGE  MAXIMUM  AVERAGE  MAXIMUM
 CP2K                                 1  1.0    0.047    0.067 1471.224 1471.224
 qs_energies                          1  2.0    0.001    0.001 1468.018 1468.018
 scf_env_do_scf                       1  3.0    0.000    0.000 1052.849 1052.855
 scf_env_do_scf_inner_loop          214  4.0    0.005    0.014 1052.849 1052.854
 qs_ks_update_qs_env                214  5.0    0.001    0.002  959.585  960.011
 rebuild_ks_matrix                  214  6.0    0.001    0.001  959.560  959.987
 qs_ks_build_kohn_sham_matrix       214  7.0    0.031    0.035  959.559  959.987
 integrate_four_center              534  9.6   28.296   35.227  890.500  890.810
 hfx_ks_matrix                      214  8.0    0.009    0.011  717.639  717.909
 integrate_four_center_main         534 10.6    3.078    6.877  593.917  683.944
 integrate_four_center_bin        77749 11.6  590.839  682.480  590.839  682.480
 qs_energies_properties               1  3.0    0.000    0.000  412.488  412.488
 tddfpt                               1  4.0    0.000    0.000  412.488  412.488
 tddfpt_energies                      1  5.0    0.000    0.001  412.417  412.417
 tddfpt_davidson_solver               1  6.0    0.002    0.004  408.326  408.326
 tddfpt_compute_Aop_evects            8  7.0    0.000    0.000  405.455  405.456
 fhxc_kernel                          8  8.0    0.007    0.008  226.902  226.903
 tddfpt_apply_hfx                     8  8.0    0.003    0.004  177.179  177.179
 tddft_hfx_matrix                   320  9.0    0.009    0.010  172.889  173.023
 calc_screening_functions             1 10.0  148.864  159.599  150.536  161.271
 fft_wrap_pw1pw2                   7708 10.6    0.123    0.168  139.966  141.896
 mp_sync                           2941 11.2   89.796  138.085   89.796  138.085
 fft_wrap_pw1pw2_250               5458 11.7    3.763    4.123  133.668  135.630
 pw_poisson_solve                   374  8.9    2.179    2.345  131.274  132.542
 fft3d_ps                          7708 12.6   35.998   38.318  123.811  126.309
 prepare_gapw_den                   375  8.4    0.011    0.013   94.582   94.851
 mp_alltoall_z22v                  7708 14.6   79.042   93.783   79.042   93.783
 tddfpt_apply_coulomb               160  9.0    0.003    0.004   92.491   93.744
 qs_rho_update_rho_low              376  6.7    0.004    0.005   86.404   86.421
 ps_wavelet_solve                   374  9.9   37.380   54.133   77.445   77.728
 calculate_rho_elec                 376  7.7    0.820    0.878   71.726   71.742
 calculate_rho_atom                1500  9.4    9.153   69.007    9.153   69.007
 mp_sum_dv                        32656  8.8   61.484   63.309   61.484   63.309
 integrate_v_rspace                 374  9.0    0.009    0.010   62.310   62.661
 x_to_yz                           3210 13.4    3.749    4.183   55.945   58.711
 gaVxcgb_GC                         748  9.4    1.564   58.623    1.564   58.623
 xc_pw_derive                      2247 11.0    0.020    0.026   48.978   51.715
 mp_alltoall_d54                    374 10.9   20.652   51.084   20.652   51.084
 density_rs2pw                      376  8.7    0.021    0.026   46.780   50.777
 mp_sum_d                         13720  7.4   43.010   48.958   43.010   48.958
 transfer_rs2pw                    1880  9.8    0.042    0.068   36.868   40.855
 mp_alltoall_d11v                 16624 11.3   32.617   38.354   32.617   38.354
 yz_to_x                           2998 14.0    2.695    3.311   29.283   38.004
 qs_vxc_create                      214  8.0    0.003    0.003   37.468   37.468
 xc_vxc_pw_create                   214  9.0    0.597    0.686   37.465   37.466
 potential_pw2rs                    374 10.0    0.078    0.105   36.276   36.674
 calculate_vxc_atom                 214  8.0    0.188    2.002   35.932   35.933
 xc_pw_divergence                   374 10.4    0.010    0.013   32.938   35.329
 sum_up_and_integrate               214  8.0    0.002    0.003   35.104   35.276
 transfer_pw2rs                    1871 10.8    0.026    0.033   33.256   33.769
 mp_waitany                       99042 12.3   28.707   32.841   28.707   32.841
 grid_collocate_task_list           376  8.7   22.540   32.247   22.540   32.247
 calculate_xc_2nd_deriv_atom        160  9.0    0.125    2.847    0.826   28.161
 mp_sum_dm                        20511  9.1   26.667   27.201   26.667   27.201
 qs_scf_new_mos                     214  5.0    0.003    0.003   26.529   26.675
 rs_gather_matrices                 374 10.0    0.039    0.062   24.684   26.131
 transfer_rs2pw_250                 752 11.1    6.097    6.802   20.131   25.660
 integrate_vhg0_rspace              374  8.9    2.730    3.097   25.262   25.641
 tddfpt_apply_xc_analytic           160  9.0    0.112    0.144   25.379   25.516
 grid_integrate_task_list           374 10.0    1.340   25.266    1.340   25.266
 cp_fm_syevd                        264  7.1    0.002    0.003   24.268   24.329
 cp_fm_redistribute_end             264  8.1   12.082   23.902   12.099   23.928
 eigensolver_symm                   214  6.0    0.009    0.011   23.650   23.681
 cp_fm_syevd_base                   264  8.1   11.800   23.639   11.800   23.639
 mp_alltoall_d45                    375 10.9   19.144   22.757   19.144   22.757
 mp_waitall_1                    611564 12.9   17.177   20.591   17.177   20.591
 xc_rho_set_and_dset_create         215 10.0    0.475    0.618   17.344   18.402
 transfer_pw2rs_250                 749 11.4    5.412    6.279   17.092   18.258
 put_rho0_on_grid                   375  9.4    0.890    1.280   17.763   18.032
 gspace_mixing                      213  5.0    0.463    0.496   17.178   17.179
 mp_sum_l                          6120 10.3   10.978   16.063   10.978   16.063
 integrate_four_center_load         534 10.6    0.002    0.003   10.785   15.848
 hfx_load_balance                     1 11.0    0.000    0.000   10.783   15.846
 hfx_load_balance_range               1 12.0    0.000    0.000   10.750   15.813
 xc_calc_2nd_deriv_analytical       800 10.1    0.777    0.897   14.917   15.017
 calculate_rho_atom_coeff           376  7.7    0.902    1.426   14.673   14.675
 broyden_mixing                     213  6.0   12.078   12.378   12.459   12.651
 integrate_four_center_getP         534 10.6    0.881    1.137    9.900   10.929
 mp_isendrecv_dv                 390440 12.2    3.531    8.793    3.531    8.793
 cp_dbcsr_sm_fm_multiply           1006  8.6    0.022    0.025    8.399    8.660
 transfer_rs2pw_90                  376 10.7    1.282    1.546    6.304    8.414
 transfer_rs2pw_30                  376 10.7    3.549    3.703    7.975    8.150
 transfer_pw2rs_30                  374 12.0    3.405    3.729    7.615    7.971
 calculate_rho0_atom               1500  9.4    6.906    7.816    6.906    7.816
 integrate_four_center_dist_KS      534 10.6    0.419    0.447    7.138    7.153
 transfer_pw2rs_90                  374 12.0    1.401    1.566    6.068    6.759
 dbcsr_complete_redistribute       3799 10.2    0.183    0.287    6.350    6.585
 Vh_1c_gg_integrals                 374  8.9    0.199    5.307    5.414    6.284
 mp_sendrecv_dv                  161680 11.7    5.938    6.185    5.938    6.185
 pw_scatter_p                      3958 12.5    5.123    5.874    5.123    5.874
 rs_grid_zero                      1873 11.6    4.876    5.030    4.876    5.030
 copy_dbcsr_to_fm                  1242  8.9    0.019    0.020    4.596    4.947
 pw_gather_p                       3750 12.7    4.141    4.835    4.141    4.835
 cp2k_distribution_to_z_slices      374  9.9    1.738    1.911    3.911    4.780
 copy_fm_to_dbcsr                  2555  9.4    0.013    0.014    4.335    4.569
 fft_wrap_pw1pw2_90                 750 11.4    0.112    0.224    3.871    4.341
 dbcsr_multiply_generic            1540 10.1    0.077    0.088    4.033    4.306
 update_ks_atom                     374  8.4    0.551    1.262    3.559    4.094
 pw_derive                         3369 11.6    3.687    3.964    3.687    3.964
 xc_functional_eval                1711 10.9    0.002    0.008    2.927    3.919
 pbe_lda_eval                      1711 11.9    2.925    3.915    2.925    3.915
 powell_optimize                1280290 11.0    3.216    3.704    3.216    3.704
 calc_pair_dist_radii                 1 10.0    1.442    1.466    2.986    3.311
 tddfpt_print_nto_analysis            1  6.0    0.003    0.004    3.302    3.303
 mp_bcast_dm                      13464  9.4    3.008    3.164    3.008    3.164
 pw_copy                           5295 10.8    2.671    2.902    2.671    2.902
 cp_dbcsr_plus_fm_fm_t              374  7.9    0.006    0.007    2.765    2.869
 dbcsr_desymmetrize_deep           1243  9.9    0.037    0.052    2.456    2.804
 create_qs_kind_set                   1  2.0    0.000    0.000    2.796    2.797
 read_qs_kind                         4  3.0    1.553    1.595    2.796    2.797
 mp_alltoall_i11v                 12640 11.2    2.768    2.782    2.768    2.782
 multiply_cannon                   1540 11.1    0.195    0.202    2.479    2.731
 cp_dbcsr_sm_fm_multiply_core      1006  9.6    0.003    0.003    2.490    2.707
 cp_fm_geeig                         20  7.0    0.001    0.001    2.687    2.689
 transfer_pw2rs_10                  374 12.0    0.892    1.020    2.455    2.621
 transfer_rs2pw_10                  376 10.7    0.905    0.961    2.417    2.470
 pw_poisson_set                     375  9.8    0.009    0.011    2.229    2.267
 mp_alltoall_i22                   5042 11.1    1.738    2.262    1.738    2.262
 multiply_cannon_loop              1540 12.1    0.361    0.385    1.926    2.198
 qs_energies_init_hamiltonians        1  3.0    0.000    0.000    2.183    2.183
 build_core_hamiltonian_matrix        1  4.0    0.000    0.000    2.173    2.173
 overlap_condnum                      1  5.0    0.000    0.001    2.155    2.170
 mp_isend_dm3                     18006 12.3    1.002    2.115    1.002    2.115
 parallel_gemm_fm                  1798  8.0    0.003    0.003    2.081    2.113
 parallel_gemm_fm_gemm             1798  9.0    0.003    0.003    2.078    2.110
 cp_fm_gemm                        1798 10.0    2.076    2.107    2.076    2.107
 pw_copy_to_array                  3750 12.7    1.671    1.970    1.671    1.970
 mp_isend_dv                     191540 13.3    1.127    1.970    1.127    1.970
 mp_irecv_dm3                     18006 12.3    0.890    1.948    0.890    1.948
 arnoldi_conjugate_gradient           5  6.0    0.042    0.051    1.940    1.941
 pw_integral_ab_c1d_c1d_gs          374  9.9    1.215    1.225    1.603    1.749
 calculate_dm_sparse                214  6.0    0.002    0.003    1.594    1.692
 tddfpt_orthonormalize_psi1_psi       9  6.9    0.019    0.020    1.664    1.664
 mp_alltoall_z11v                  1500 14.4    1.523    1.585    1.523    1.585
 fft_wrap_pw1pw2_30                 750 11.4    0.021    0.023    1.523    1.582
 pw_axpy                           3908 10.2    1.381    1.536    1.381    1.536
 pw_copy_from_array                3958 12.5    1.192    1.498    1.192    1.498
 mp_max_i                           845  5.8    0.584    1.431    0.584    1.431
 tddfpt_apply_energy_diff             8  8.0    0.001    0.001    1.374    1.375
 parser_read_line                331862  4.0    0.111    0.127    1.243    1.270
 make_m2s                          3080 11.1    0.070    0.086    1.086    1.229
 dbcsr_sym_matrix_vector_mult      6198  7.0    0.098    0.107    1.080    1.220
 parser_read_line_low               356  5.0    0.094    0.506    1.132    1.161
 pw_zero                           3370 10.5    1.001    1.127    1.001    1.127
 hybrid_alltoall_any               4323 13.2    0.042    0.063    1.033    1.117
 tddfpt_compute_residual_vects        7  7.0    0.001    0.001    1.114    1.114
 broadcast_input_information        356  6.0    0.231    0.256    1.038    1.106
 yz_to_xz                           748 14.0    0.067    0.075    0.984    1.037
 rs_scatter_matrices                376  8.7    0.005    0.013    1.009    1.036
 cp_fm_symm                         214  7.0    0.927    0.963    0.927    0.963
 make_images                       3080 12.1    0.182    0.213    0.835    0.955
 multiply_cannon_metrocomm3       55440 13.1    0.091    0.096    0.491    0.918
 fft_wrap_pw1pw2_10                 750 11.4    0.007    0.008    0.781    0.792
 multiply_cannon_metrocomm1       55440 13.1    0.064    0.068    0.315    0.713
 offload_free_buffer                382  9.7    0.327    0.687    0.327    0.687
 xz_to_yz                           752 12.7    0.044    0.051    0.649    0.660
 mp_rank_compare                   7708 13.6    0.630    0.651    0.630    0.651
 pw_poisson_rebuild                 374  9.9    0.000    0.001    0.606    0.630
 ps_wavelet_create                    1 10.0    0.000    0.000    0.605    0.629
 RS_z_slice_distribution              1 11.0    0.498    0.588    0.605    0.629
 dbcsr_finalize                   19334 11.2    0.059    0.165    0.249    0.588
 dbcsr_add_d                       9496  7.0    0.009    0.010    0.089    0.579
 mp_bcast_i_src                    1424  7.0    0.316    0.571    0.316    0.571
 dbcsr_add_anytype                 9496  8.0    0.012    0.074    0.080    0.569
 mp_bcast_am_src                    356  7.0    0.443    0.521    0.474    0.558
 multiply_cannon_metrocomm4       52360 13.1    0.155    0.166    0.340    0.540
 multiply_cannon_multrec          55440 13.1    0.125    0.504    0.132    0.513
 dbcsr_rep_row_to_rep_col_vec      6198  8.0    0.033    0.044    0.218    0.490
 tddfpt_construct_ground_state_       1  6.0    0.000    0.000    0.485    0.486
 dbcsr_col_vec_to_rep_row          6198  8.0    0.044    0.053    0.342    0.446
 mp_irecv_dv                     190378 13.3    0.196    0.438    0.196    0.438
 init_scf_run                         1  3.0    0.000    0.000    0.434    0.434
 cp_fm_redistribute_start           264  8.1    0.267    0.273    0.367    0.408
 scale_and_distribute               748 10.9    0.377    0.405    0.377    0.405
 make_images_sizes                 3080 13.1    0.004    0.004    0.338    0.375
 mp_alltoall_i44                   3080 14.1    0.334    0.372    0.334    0.372
 multiply_cannon_metrocomm2       50820 13.1    0.151    0.160    0.287    0.356
 cp_fm_trace_a1b1t1_aa            13090  8.0    0.063    0.069    0.334    0.339
 mp_allgather_i34                  1540 12.1    0.245    0.324    0.245    0.324
 cp_fm_triangular_multiply           60  8.0    0.320    0.322    0.320    0.322
 scf_env_initial_rho_setup            1  4.0    0.000    0.000    0.318    0.319
 dbcsr_merge_all                  15906 12.2    0.103    0.230    0.138    0.313
 qs_init_subsys                       1  2.0    0.008    0.009    0.304    0.305
 xc_2nd_deriv_of_r                  640 10.0    0.002    0.050    0.012    0.295
 mp_bcast_dv                       6462  9.0    0.160    0.281    0.160    0.281
 make_images_data                  3080 13.1    0.041    0.052    0.151    0.271
 mp_cart_sub                       2488 10.9    0.266    0.268    0.266    0.268
 vxc_of_r_new                       856  9.0    0.002    0.041    0.011    0.267
 prepare_dr1dr                      800 11.1    0.239    0.266    0.239    0.266
 dbcsr_create_new                 59326 10.5    0.189    0.202    0.245    0.260
 pw_scale                          1176  9.5    0.203    0.253    0.203    0.253
 qs_env_setup                         1  3.0    0.000    0.000    0.232    0.247
 qs_env_rebuild_pw_env                2  3.5    0.000    0.000    0.231    0.245
 pw_env_rebuild                       1  5.0    0.001    0.001    0.231    0.245
 mp_cart_create                    2743 10.1    0.206    0.231    0.209    0.236
 dbcsr_iterator_start            101710  9.6    0.126    0.180    0.153    0.231
 cp_fm_cholesky_decompose            20  8.0    0.224    0.225    0.224    0.225
 dbcsr_copy                       29504  8.0    0.103    0.116    0.183    0.206
 pw_grid_setup                        4  6.0    0.000    0.000    0.180    0.195
 pw_grid_setup_internal               4  7.0    0.003    0.004    0.180    0.194
 mp_max_d                           356  7.8    0.100    0.182    0.100    0.182
 self_consistency_check             214  5.0    0.001    0.001    0.096    0.182
 cp_sm_mix                          214  6.0    0.002    0.006    0.094    0.181
 cp_fm_triangular_invert             20  8.0    0.176    0.177    0.176    0.177
 cube_transpose_2                   752 12.7    0.014    0.017    0.153    0.167
 dbcsr_iterator_stop             101710  9.6    0.091    0.125    0.110    0.149
 -------------------------------------------------------------------------------

 The number of warnings for this run is : 1
 
 -------------------------------------------------------------------------------
  **** **** ******  **  PROGRAM ENDED AT                 2025-04-02 21:05:47.427
 ***** ** ***  *** **   PROGRAM RAN ON                              i06r01c04s03
 **    ****   ******    PROGRAM RAN BY                                   di38fab
 ***** **    ** ** **   PROGRAM PROCESS ID                               1374713
  **** **  *******  **  PROGRAM STOPPED IN /hppfs/scratch/04/di38fab/07_MOL_non_
                                           aug/05_MOL_non_aug/05_MOL/aUKBqsEOTmq
                                           69kFe5R_nOg/5k_set_final_qzvp/OGEJUG/
                                           QZVPP/TDDFT
