SIRIUS 7.5.2, git hash: https://api.github.com/repos/electronic-structure/SIRIUS/git/ref/tags/v7.5.2
 DBCSR| CPU Multiplication driver                                           XSMM (U)
 DBCSR| Multrec recursion limit                                              512 (U)
 DBCSR| Multiplication stack size                                           1000 (D)
 DBCSR| Maximum elements for images                                    UNLIMITED (U)
 DBCSR| Multiplicative factor virtual images                                   1 (U)
 DBCSR| Use multiplication densification                                       T (D)
 DBCSR| Multiplication size stacks                                             3 (U)
 DBCSR| Use memory pool for CPU allocation                                     F (U)
 DBCSR| Number of 3D layers                                               SINGLE (U)
 DBCSR| Use MPI memory allocation                                              F (U)
 DBCSR| Use RMA algorithm                                                      F (U)
 DBCSR| Use Communication thread                                               T (U)
 DBCSR| Communication thread load                                             75 (D)
 DBCSR| MPI: My process id                                                     0
 DBCSR| MPI: Number of processes                                             192
 DBCSR| OMP: Current number of threads                                         4
 DBCSR| OMP: Max number of threads                                             4
 DBCSR| Split modifier for TAS multiplication algorithm                  1.0E+00 (U)


  **** **** ******  **  PROGRAM STARTED AT               2025-03-27 10:21:21.931
 ***** ** ***  *** **   PROGRAM STARTED ON                              n2cn0472
 **    ****   ******    PROGRAM STARTED BY                              metdyn02
 ***** **    ** ** **   PROGRAM PROCESS ID                               1205021
  **** **  *******  **  PROGRAM STARTED IN /scratch/hpc-prf-metdyn/metdyn02_Remi
                                           /10_MOL/05_MOL/aUKBqsEOTmq69kFe5R_nOg
                                           /5k_set_final_qzvp/VENQEL/SZV/TDDFT/1
                                           e-4

 CP2K| version string:                 CP2K version 2025.1 (Development Version)
 CP2K| source code revision number:                                  git:9754b87
 CP2K| cp2kflags: omp libint fftw3 libxc libgrpp elpa parallel scalapack mpi_f08
 CP2K|             cosma xsmm plumed2 spglib sirius libvori libbqb libvdwxc hdf5
 CP2K| is freely available from                            https://www.cp2k.org/
 CP2K| Program compiled at                          Sun Mar 23 00:44:01 CET 2025
 CP2K| Program compiled on                                              n2login1
 CP2K| Program compiled for                                                local
 CP2K| Data directory path    /opt/software/pc2/EB-SW/software/CP2K/2024.1-foss-
 CP2K| Input file name                                                    GW.inp

 GLOBAL| Force Environment number                                              1
 GLOBAL| Basis set file name            /scratch/hpc-prf-metdyn/metdyn02_Remi/BA
 GLOBAL| Potential file name            /pc2/groups/hpc-prf-metdyn/metdyn02_Remi
 GLOBAL| MM Potential file name                                     MM_POTENTIAL
 GLOBAL| Coordinate file name                                      __STD_INPUT__
 GLOBAL| Method name                                                        CP2K
 GLOBAL| Project name                                                       MoS2
 GLOBAL| Run type                                                         ENERGY
 GLOBAL| FFT library                                                       FFTW3
 GLOBAL| Diagonalization library                                            ELPA
 GLOBAL| DGEMM library                                                      BLAS
 GLOBAL| Minimum number of eigenvectors for ELPA usage                        16
 GLOBAL| Orthonormality check for eigenvectors                          DISABLED
 GLOBAL| Matrix multiplication library                                     COSMA
 GLOBAL| All-to-all communication in single precision                          F
 GLOBAL| FFTs using library dependent lengths                                  F
 GLOBAL| Grid backend                                                       AUTO
 GLOBAL| Global print level                                               MEDIUM
 GLOBAL| MPI I/O enabled                                                       T
 GLOBAL| Total number of message passing processes                           192
 GLOBAL| Number of threads for this process                                    4
 GLOBAL| This output is from process                                           0
 GLOBAL| OpenMP stack size per thread (OMP_STACKSIZE)                    default
 GLOBAL| CPU model name                          AMD EPYC 7763 64-Core Processor
 GLOBAL| CPUID                                                              1002

 MEMORY| system memory details [Kb]
 MEMORY|                        rank 0           min           max       average
 MEMORY| MemTotal            263899260     263899260     263899264     263899261
 MEMORY| MemFree             243220216     238051656     243523824     241233066
 MEMORY| Buffers                112268         47216        223788        139424
 MEMORY| Cached                6486204       6330312      11901824       8645548
 MEMORY| Slab                  2419396       2092700       2530596       2340339
 MEMORY| SReclaimable           395196        335300        534324        412907
 MEMORY| MemLikelyFree       250213884     250175944     250721924     250430946


 *** Fundamental physical constants (SI units) ***

 *** Literature: B. J. Mohr and B. N. Taylor,
 ***             CODATA recommended values of the fundamental physical
 ***             constants: 2006, Web Version 5.1
 ***             http://physics.nist.gov/constants

 Speed of light in vacuum [m/s]                             2.99792458000000E+08
 Magnetic constant or permeability of vacuum [N/A**2]       1.25663706143592E-06
 Electric constant or permittivity of vacuum [F/m]          8.85418781762039E-12
 Planck constant (h) [J*s]                                  6.62606896000000E-34
 Planck constant (h-bar) [J*s]                              1.05457162825177E-34
 Elementary charge [C]                                      1.60217648700000E-19
 Electron mass [kg]                                         9.10938215000000E-31
 Electron g factor [ ]                                     -2.00231930436220E+00
 Proton mass [kg]                                           1.67262163700000E-27
 Fine-structure constant                                    7.29735253760000E-03
 Rydberg constant [1/m]                                     1.09737315685270E+07
 Avogadro constant [1/mol]                                  6.02214179000000E+23
 Boltzmann constant [J/K]                                   1.38065040000000E-23
 Atomic mass unit [kg]                                      1.66053878200000E-27
 Bohr radius [m]                                            5.29177208590000E-11

 *** Conversion factors ***

 [u] -> [a.u.]                                              1.82288848426455E+03
 [Angstrom] -> [Bohr] = [a.u.]                              1.88972613288564E+00
 [a.u.] = [Bohr] -> [Angstrom]                              5.29177208590000E-01
 [a.u.] -> [s]                                              2.41888432650478E-17
 [a.u.] -> [fs]                                             2.41888432650478E-02
 [a.u.] -> [J]                                              4.35974393937059E-18
 [a.u.] -> [N]                                              8.23872205491840E-08
 [a.u.] -> [K]                                              3.15774647902944E+05
 [a.u.] -> [kJ/mol]                                         2.62549961709828E+03
 [a.u.] -> [kcal/mol]                                       6.27509468713739E+02
 [a.u.] -> [Pa]                                             2.94210107994716E+13
 [a.u.] -> [bar]                                            2.94210107994716E+08
 [a.u.] -> [atm]                                            2.90362800883016E+08
 [a.u.] -> [eV]                                             2.72113838565563E+01
 [a.u.] -> [Hz]                                             6.57968392072181E+15
 [a.u.] -> [1/cm] (wave numbers)                            2.19474631370540E+05
 [a.u./Bohr**2] -> [1/cm]                                   5.14048714338585E+03
 

 CELL_TOP| Volume [angstrom^3]:                                     27000.000000
 CELL_TOP| Vector a [angstrom    30.000     0.000     0.000   |a| =    30.000000
 CELL_TOP| Vector b [angstrom     0.000    30.000     0.000   |b| =    30.000000
 CELL_TOP| Vector c [angstrom     0.000     0.000    30.000   |c| =    30.000000
 CELL_TOP| Angle (b,c), alpha [degree]:                                90.000000
 CELL_TOP| Angle (a,c), beta  [degree]:                                90.000000
 CELL_TOP| Angle (a,b), gamma [degree]:                                90.000000
 CELL_TOP| Numerically orthorhombic:                                         YES
 CELL_TOP| Periodicity                                                      NONE

 GENERATE|  Preliminary Number of Bonds generated:                             0
 GENERATE|  Achieved consistency in connectivity generation.

 CELL| Volume [angstrom^3]:                                         27000.000000
 CELL| Vector a [angstrom]:      30.000     0.000     0.000   |a| =    30.000000
 CELL| Vector b [angstrom]:       0.000    30.000     0.000   |b| =    30.000000
 CELL| Vector c [angstrom]:       0.000     0.000    30.000   |c| =    30.000000
 CELL| Angle (b,c), alpha [degree]:                                    90.000000
 CELL| Angle (a,c), beta  [degree]:                                    90.000000
 CELL| Angle (a,b), gamma [degree]:                                    90.000000
 CELL| Numerically orthorhombic:                                             YES
 CELL| Periodicity                                                          NONE

 CELL_REF| Volume [angstrom^3]:                                     27000.000000
 CELL_REF| Vector a [angstrom    30.000     0.000     0.000   |a| =    30.000000
 CELL_REF| Vector b [angstrom     0.000    30.000     0.000   |b| =    30.000000
 CELL_REF| Vector c [angstrom     0.000     0.000    30.000   |c| =    30.000000
 CELL_REF| Angle (b,c), alpha [degree]:                                90.000000
 CELL_REF| Angle (a,c), beta  [degree]:                                90.000000
 CELL_REF| Angle (a,b), gamma [degree]:                                90.000000
 CELL_REF| Numerically orthorhombic:                                         YES
 CELL_REF| Periodicity                                                      NONE

 *******************************************************************************
 *******************************************************************************
 **                                                                           **
 **     #####                         ##              ##                      **
 **    ##   ##            ##          ##              ##                      **
 **   ##     ##                       ##            ######                    **
 **   ##     ##  ##   ##  ##   #####  ##  ##   ####   ##    #####    #####    **
 **   ##     ##  ##   ##  ##  ##      ## ##   ##      ##   ##   ##  ##   ##   **
 **   ##  ## ##  ##   ##  ##  ##      ####     ###    ##   ######   ######    **
 **    ##  ###   ##   ##  ##  ##      ## ##      ##   ##   ##       ##        **
 **     #######   #####   ##   #####  ##  ##  ####    ##    #####   ##        **
 **           ##                                                    ##        **
 **                                                                           **
 **                                                ... make the atoms dance   **
 **                                                                           **
 **            Copyright (C) by CP2K developers group (2000-2025)             **
 **                      J. Chem. Phys. 152, 194103 (2020)                    **
 **                                                                           **
 *******************************************************************************

 DFT| Spin restricted Kohn-Sham (RKS) calculation                            RKS
 DFT| Multiplicity                                                             1
 DFT| Number of spin states                                                    1
 DFT| Charge                                                                   0
 DFT| Self-interaction correction (SIC)                                       NO
 DFT| Cutoffs: density                                              1.000000E-10
 DFT|          gradient                                             1.000000E-10
 DFT|          tau                                                  1.000000E-10
 DFT|          cutoff_smoothing_range                               0.000000E+00
 DFT| XC density smoothing                                                  NONE
 DFT| XC derivatives                                                          PW

 FUNCTIONAL| PBE:
 FUNCTIONAL| J.P.Perdew, K.Burke, M.Ernzerhof, Phys. Rev. Letter, vol. 77, n 18,
 FUNCTIONAL|  pp. 3865-3868, (1996)sx=0.750sc=1.000{spin unpolarized}           


 QS| Method:                                                                GAPW
 QS| Density plane wave grid type                        NON-SPHERICAL FULLSPACE
 QS| Number of grid levels:                                                    4
 QS| Density cutoff [a.u.]:                                                250.0
 QS| Multi grid cutoff [a.u.]: 1) grid level                               250.0
 QS|                           2) grid level                                83.3
 QS|                           3) grid level                                27.8
 QS|                           4) grid level                                 9.3
 QS| Grid level progression factor:                                          3.0
 QS| Relative density cutoff [a.u.]:                                        50.0
 QS| Interaction thresholds: eps_pgf_orb:                                1.0E-12
 QS|                         eps_filter_matrix:                          0.0E+00
 QS|                         eps_core_charge:                            1.0E-14
 QS|                         eps_rho_gspace:                             1.0E-12
 QS|                         eps_rho_rspace:                             1.0E-12
 QS|                         eps_gvg_rspace:                             1.0E-06
 QS|                         eps_ppl:                                    1.0E-02
 QS|                         eps_ppnl:                                   1.0E-08
 QS| GAPW|      One center basis from orbital basis primitives
 QS| GAPW|                   eps_fit:                                    1.0E-04
 QS| GAPW|                   eps_iso:                                    1.0E-12
 QS| GAPW|                   eps_svd:                                    1.0E-08
 QS| GAPW|                   eps_cpc:                                    1.0E-12
 QS| GAPW|   atom-r-grid: quadrature:                                     GC_LOG
 QS| GAPW|      atom-s-grid:  max l :                                          4
 QS| GAPW|      max_l_rho0 :                                                   2


 ATOMIC KIND INFORMATION

  1. Atomic kind: F                                     Number of atoms:       6

     Orbital Basis Set                                         aug-SZV-MOLOPT-ae

       Number of orbital shell sets:                                           2
       Number of orbital shells:                                               6
       Number of primitive Cartesian functions:                               13
       Number of Cartesian basis functions:                                   15
       Number of spherical basis functions:                                   14
       Norm type:                                                              2

       Normalised Cartesian orbitals:

                        Set   Shell   Orbital            Exponent    Coefficient

                          1       1    1s                0.155133       0.000000
                                                         0.315820       0.072273
                                                         0.689002       0.320758
                                                         1.586463       0.252111
                                                         4.123510      -0.069677
                                                        13.267438      -0.232821
                                                        67.032281      -0.221274

                          1       2    2s                0.155133      -0.179489
                                                         0.315820      -0.016230
                                                         0.689002      -0.059266
                                                         1.586463       0.485286
                                                         4.123510       0.000000
                                                        13.267438       0.000000
                                                        67.032281       0.000000

                          1       3    2px               0.155133       0.000000
                                                         0.315820       0.034324
                                                         0.689002       0.381050
                                                         1.586463       1.060942
                                                         4.123510       1.456516
                                                        13.267438       1.359964
                                                        67.032281       1.027893
                          1       3    2py               0.155133       0.000000
                                                         0.315820       0.034324
                                                         0.689002       0.381050
                                                         1.586463       1.060942
                                                         4.123510       1.456516
                                                        13.267438       1.359964
                                                        67.032281       1.027893
                          1       3    2pz               0.155133       0.000000
                                                         0.315820       0.034324
                                                         0.689002       0.381050
                                                         1.586463       1.060942
                                                         4.123510       1.456516
                                                        13.267438       1.359964
                                                        67.032281       1.027893

                          1       4    3px               0.155133       0.147830
                                                         0.315820       0.027789
                                                         0.689002      -0.276015
                                                         1.586463      -0.305674
                                                         4.123510       0.000000
                                                        13.267438       0.000000
                                                        67.032281       0.000000
                          1       4    3py               0.155133       0.147830
                                                         0.315820       0.027789
                                                         0.689002      -0.276015
                                                         1.586463      -0.305674
                                                         4.123510       0.000000
                                                        13.267438       0.000000
                                                        67.032281       0.000000
                          1       4    3pz               0.155133       0.147830
                                                         0.315820       0.027789
                                                         0.689002      -0.276015
                                                         1.586463      -0.305674
                                                         4.123510       0.000000
                                                        13.267438       0.000000
                                                        67.032281       0.000000

                          1       5    3dx2              0.155133       0.001192
                                                         0.315820       0.007166
                                                         0.689002       0.163958
                                                         1.586463       3.063217
                                                         4.123510       0.000000
                                                        13.267438       0.000000
                                                        67.032281       0.000000
                          1       5    3dxy              0.155133       0.002065
                                                         0.315820       0.012412
                                                         0.689002       0.283983
                                                         1.586463       5.305647
                                                         4.123510       0.000000
                                                        13.267438       0.000000
                                                        67.032281       0.000000
                          1       5    3dxz              0.155133       0.002065
                                                         0.315820       0.012412
                                                         0.689002       0.283983
                                                         1.586463       5.305647
                                                         4.123510       0.000000
                                                        13.267438       0.000000
                                                        67.032281       0.000000
                          1       5    3dy2              0.155133       0.001192
                                                         0.315820       0.007166
                                                         0.689002       0.163958
                                                         1.586463       3.063217
                                                         4.123510       0.000000
                                                        13.267438       0.000000
                                                        67.032281       0.000000
                          1       5    3dyz              0.155133       0.002065
                                                         0.315820       0.012412
                                                         0.689002       0.283983
                                                         1.586463       5.305647
                                                         4.123510       0.000000
                                                        13.267438       0.000000
                                                        67.032281       0.000000
                          1       5    3dz2              0.155133       0.001192
                                                         0.315820       0.007166
                                                         0.689002       0.163958
                                                         1.586463       3.063217
                                                         4.123510       0.000000
                                                        13.267438       0.000000
                                                        67.032281       0.000000

                          2       1    1s             1728.626574       1.750862
                                                       316.941790       2.642610
                                                        88.668891       3.470861
                                                        30.460157       3.424294
                                                        11.828570       1.893283
                                                         4.871659       0.304597

     RI Auxiliary Basis Set             RI_aug-SZV-MOLOPT-ae_N_RI_031_s_p_d_f_g_

       Number of orbital shell sets:                                          11
       Number of orbital shells:                                              11
       Number of primitive Cartesian functions:                               11
       Number of Cartesian basis functions:                                   36
       Number of spherical basis functions:                                   31
       Norm type:                                                              2

       Normalised Cartesian orbitals:

                        Set   Shell   Orbital            Exponent    Coefficient

                          1       1    1s                0.317894       0.301732

                          2       1    9dx2              0.524090       0.531337
                          2       1    9dxy              0.524090       0.920302
                          2       1    9dxz              0.524090       0.920302
                          2       1    9dy2              0.524090       0.531337
                          2       1    9dyz              0.524090       0.920302
                          2       1    9dz2              0.524090       0.531337

                          3       1    6px               0.746136       0.988468
                          3       1    6py               0.746136       0.988468
                          3       1    6pz               0.746136       0.988468

                          4       1    2s                1.392054       0.913382

                          5       1    7px               1.615444       2.596002
                          5       1    7py               1.615444       2.596002
                          5       1    7pz               1.615444       2.596002

                          6       1   10dx2              2.575615       8.618887
                          6       1   10dxy              2.575615      14.928350
                          6       1   10dxz              2.575615      14.928350
                          6       1   10dy2              2.575615       8.618887
                          6       1   10dyz              2.575615      14.928350
                          6       1   10dz2              2.575615       8.618887

                          7       1   11fx3              2.583079      12.452720
                          7       1   11fx2y             2.583079      27.845128
                          7       1   11fx2z             2.583079      27.845128
                          7       1   11fxy2             2.583079      27.845128
                          7       1   11fxyz             2.583079      48.229177
                          7       1   11fxz2             2.583079      27.845128
                          7       1   11fy3              2.583079      12.452720
                          7       1   11fy2z             2.583079      27.845128
                          7       1   11fyz2             2.583079      27.845128
                          7       1   11fz3              2.583079      12.452720

                          8       1    3s                3.617131       1.869318

                          9       1    8px               8.515448      20.734782
                          9       1    8py               8.515448      20.734782
                          9       1    8pz               8.515448      20.734782

                         10       1    4s               31.214795       9.411968

                         11       1    5s              195.679475      37.287996

       Atomic covalent radius [Angstrom]:                                  0.720

       Atomic van der Waals radius [Angstrom]:                             1.470

     The atoms of this atomic kind are PAW atoms (GAPW):
       Hard Gaussian function radius:                                      1.512
       Rho0 radius:                                                        1.512
       Maximum GTO radius used for PAW projector construction:            24.566

     GAPW Soft Basis Set                                  aug-SZV-MOLOPT-ae_soft

       Number of orbital shell sets:                                           2
       Number of orbital shells:                                               6
       Number of primitive Cartesian functions:                                5
       Number of Cartesian basis functions:                                   15
       Number of spherical basis functions:                                   14
       Norm type:                                                              2

       Normalised Cartesian orbitals:

                        Set   Shell   Orbital            Exponent    Coefficient

                          1       1    1s                0.155133       0.000000
                                                         0.315820       0.072273
                                                         0.689002       0.320758
                                                         1.586463       0.252111
                                                         4.123510       0.000000

                          1       2    2s                0.155133      -0.179489
                                                         0.315820      -0.016230
                                                         0.689002      -0.059266
                                                         1.586463       0.485286
                                                         4.123510       0.000000

                          1       3    2px               0.155133       0.000000
                                                         0.315820       0.034324
                                                         0.689002       0.381050
                                                         1.586463       1.060942
                                                         4.123510       1.456516
                          1       3    2py               0.155133       0.000000
                                                         0.315820       0.034324
                                                         0.689002       0.381050
                                                         1.586463       1.060942
                                                         4.123510       1.456516
                          1       3    2pz               0.155133       0.000000
                                                         0.315820       0.034324
                                                         0.689002       0.381050
                                                         1.586463       1.060942
                                                         4.123510       1.456516

                          1       4    3px               0.155133       0.147830
                                                         0.315820       0.027789
                                                         0.689002      -0.276015
                                                         1.586463      -0.305674
                                                         4.123510       0.000000
                          1       4    3py               0.155133       0.147830
                                                         0.315820       0.027789
                                                         0.689002      -0.276015
                                                         1.586463      -0.305674
                                                         4.123510       0.000000
                          1       4    3pz               0.155133       0.147830
                                                         0.315820       0.027789
                                                         0.689002      -0.276015
                                                         1.586463      -0.305674
                                                         4.123510       0.000000

                          1       5    3dx2              0.155133       0.001192
                                                         0.315820       0.007166
                                                         0.689002       0.163958
                                                         1.586463       3.063217
                                                         4.123510       0.000000
                          1       5    3dxy              0.155133       0.002065
                                                         0.315820       0.012412
                                                         0.689002       0.283983
                                                         1.586463       5.305647
                                                         4.123510       0.000000
                          1       5    3dxz              0.155133       0.002065
                                                         0.315820       0.012412
                                                         0.689002       0.283983
                                                         1.586463       5.305647
                                                         4.123510       0.000000
                          1       5    3dy2              0.155133       0.001192
                                                         0.315820       0.007166
                                                         0.689002       0.163958
                                                         1.586463       3.063217
                                                         4.123510       0.000000
                          1       5    3dyz              0.155133       0.002065
                                                         0.315820       0.012412
                                                         0.689002       0.283983
                                                         1.586463       5.305647
                                                         4.123510       0.000000
                          1       5    3dz2              0.155133       0.001192
                                                         0.315820       0.007166
                                                         0.689002       0.163958
                                                         1.586463       3.063217
                                                         4.123510       0.000000

                          2       1    1s         

     AE Potential information for                                            ALL

       Description:                                       All-electron potential
                                          Krack, Parrinello, PCCP 2, 2105 (2000)

       Gaussian exponent of the core charge distribution:              10.470541
       Electronic configuration (s p d ...):                           4   5   0

  2. Atomic kind: S                                     Number of atoms:       5

     Orbital Basis Set                                         aug-SZV-MOLOPT-ae

       Number of orbital shell sets:                                           3
       Number of orbital shells:                                               8
       Number of primitive Cartesian functions:                               19
       Number of Cartesian basis functions:                                   19
       Number of spherical basis functions:                                   18
       Norm type:                                                              2

       Normalised Cartesian orbitals:

                        Set   Shell   Orbital            Exponent    Coefficient

                          1       1    1s                0.072000       0.000000
                                                         0.148404       0.047043
                                                         0.287959       0.206056
                                                         0.581913       0.071732
                                                         1.300021      -0.154888
                                                         3.466625      -0.128563
                                                        12.944394      -0.038633

                          1       2    2s                0.072000       0.024465
                                                         0.148404       0.270123
                                                         0.287959      -0.286184
                                                         0.581913       0.001423
                                                         1.300021       0.046778
                                                         3.466625       0.000000
                                                        12.944394       0.000000

                          1       3    2px               0.072000       0.000000
                                                         0.148404       0.013902
                                                         0.287959       0.147021
                                                         0.581913       0.300295
                                                         1.300021       0.150808
                                                         3.466625      -0.123340
                                                        12.944394      -0.249863
                          1       3    2py               0.072000       0.000000
                                                         0.148404       0.013902
                                                         0.287959       0.147021
                                                         0.581913       0.300295
                                                         1.300021       0.150808
                                                         3.466625      -0.123340
                                                        12.944394      -0.249863
                          1       3    2pz               0.072000       0.000000
                                                         0.148404       0.013902
                                                         0.287959       0.147021
                                                         0.581913       0.300295
                                                         1.300021       0.150808
                                                         3.466625      -0.123340
                                                        12.944394      -0.249863

                          1       4    3px               0.072000      -0.066040
                                                         0.148404       0.050064
                                                         0.287959      -0.069730
                                                         0.581913       0.158592
                                                         1.300021      -0.055990
                                                         3.466625       0.000000
                                                        12.944394       0.000000
                          1       4    3py               0.072000      -0.066040
                                                         0.148404       0.050064
                                                         0.287959      -0.069730
                                                         0.581913       0.158592
                                                         1.300021      -0.055990
                                                         3.466625       0.000000
                                                        12.944394       0.000000
                          1       4    3pz               0.072000      -0.066040
                                                         0.148404       0.050064
                                                         0.287959      -0.069730
                                                         0.581913       0.158592
                                                         1.300021      -0.055990
                                                         3.466625       0.000000
                                                        12.944394       0.000000

                          1       5    3dx2              0.072000       0.001679
                                                         0.148404       0.023049
                                                         0.287959       0.065695
                                                         0.581913       0.132541
                                                         1.300021       0.392654
                                                         3.466625       0.000000
                                                        12.944394       0.000000
                          1       5    3dxy              0.072000       0.002907
                                                         0.148404       0.039921
                                                         0.287959       0.113787
                                                         0.581913       0.229567
                                                         1.300021       0.680096
                                                         3.466625       0.000000
                                                        12.944394       0.000000
                          1       5    3dxz              0.072000       0.002907
                                                         0.148404       0.039921
                                                         0.287959       0.113787
                                                         0.581913       0.229567
                                                         1.300021       0.680096
                                                         3.466625       0.000000
                                                        12.944394       0.000000
                          1       5    3dy2              0.072000       0.001679
                                                         0.148404       0.023049
                                                         0.287959       0.065695
                                                         0.581913       0.132541
                                                         1.300021       0.392654
                                                         3.466625       0.000000
                                                        12.944394       0.000000
                          1       5    3dyz              0.072000       0.002907
                                                         0.148404       0.039921
                                                         0.287959       0.113787
                                                         0.581913       0.229567
                                                         1.300021       0.680096
                                                         3.466625       0.000000
                                                        12.944394       0.000000
                          1       5    3dz2              0.072000       0.001679
                                                         0.148404       0.023049
                                                         0.287959       0.065695
                                                         0.581913       0.132541
                                                         1.300021       0.392654
                                                         3.466625       0.000000
                                                        12.944394       0.000000

                          2       1    1s              345.589679      -0.757073
                                                        68.401217      -0.796580
                                                        21.259047      -0.238395
                                                         8.179122       0.862581
                                                         3.552198       1.097452
                                                         1.628232       0.247277

                          2       2    2px             345.589679       7.985348
                                                        68.401217      10.565097
                                                        21.259047      11.315175
                                                         8.179122       8.242094
                                                         3.552198       2.960247
                                                         1.628232       0.266650
                          2       2    2py             345.589679       7.985348
                                                        68.401217      10.565097
                                                        21.259047      11.315175
                                                         8.179122       8.242094
                                                         3.552198       2.960247
                                                         1.628232       0.266650
                          2       2    2pz             345.589679       7.985348
                                                        68.401217      10.565097
                                                        21.259047      11.315175
                                                         8.179122       8.242094
                                                         3.552198       2.960247
                                                         1.628232       0.266650

                          3       1    1s             5529.038289       4.187581
                                                      1013.743118       6.320396
                                                       283.608793       8.301345
                                                        97.427275       8.189970
                                                        37.833862       4.528212
                                                        15.582074       0.728513

     RI Auxiliary Basis Set             RI_aug-SZV-MOLOPT-ae_N_RI_072_s_p_d_f_g_

       Number of orbital shell sets:                                          20
       Number of orbital shells:                                              20
       Number of primitive Cartesian functions:                               20
       Number of Cartesian basis functions:                                   93
       Number of spherical basis functions:                                   72
       Norm type:                                                              2

       Normalised Cartesian orbitals:

                        Set   Shell   Orbital            Exponent    Coefficient

                          1       1   19gx4              0.275952       0.032265
                          1       1   19gx3y             0.275952       0.085365
                          1       1   19gx3z             0.275952       0.085365
                          1       1   19gx2y2            0.275952       0.110205
                          1       1   19gx2yz            0.275952       0.190881
                          1       1   19gx2z2            0.275952       0.110205
                          1       1   19gxy3             0.275952       0.085365
                          1       1   19gxy2z            0.275952       0.190881
                          1       1   19gxyz2            0.275952       0.190881
                          1       1   19gxz3             0.275952       0.085365
                          1       1   19gy4              0.275952       0.032265
                          1       1   19gy3z             0.275952       0.085365
                          1       1   19gy2z2            0.275952       0.110205
                          1       1   19gyz3             0.275952       0.085365
                          1       1   19gz4              0.275952       0.032265

                          2       1    8px               0.294315       0.308998
                          2       1    8py               0.294315       0.308998
                          2       1    8pz               0.294315       0.308998

                          3       1    1s                0.341678       0.318510

                          4       1   14dx2              0.636998       0.747568
                          4       1   14dxy              0.636998       1.294827
                          4       1   14dxz              0.636998       1.294827
                          4       1   14dy2              0.636998       0.747568
                          4       1   14dyz              0.636998       1.294827
                          4       1   14dz2              0.636998       0.747568

                          5       1   17fx3              0.644663       0.548218
                          5       1   17fx2y             0.644663       1.225852
                          5       1   17fx2z             0.644663       1.225852
                          5       1   17fxy2             0.644663       1.225852
                          5       1   17fxyz             0.644663       2.123239
                          5       1   17fxz2             0.644663       1.225852
                          5       1   17fy3              0.644663       0.548218
                          5       1   17fy2z             0.644663       1.225852
                          5       1   17fyz2             0.644663       1.225852
                          5       1   17fz3              0.644663       0.548218

                          6       1    9px               0.688735       0.894345
                          6       1    9py               0.688735       0.894345
                          6       1    9pz               0.688735       0.894345

                          7       1    2s                1.050557       0.739562

                          8       1   20gx4              1.447489       3.077001
                          8       1   20gx3y             1.447489       8.140980
                          8       1   20gx3z             1.447489       8.140980
                          8       1   20gx2y2            1.447489      10.509960
                          8       1   20gx2yz            1.447489      18.203785
                          8       1   20gx2z2            1.447489      10.509960
                          8       1   20gxy3             1.447489       8.140980
                          8       1   20gxy2z            1.447489      18.203785
                          8       1   20gxyz2            1.447489      18.203785
                          8       1   20gxz3             1.447489       8.140980
                          8       1   20gy4              1.447489       3.077001
                          8       1   20gy3z             1.447489       8.140980
                          8       1   20gy2z2            1.447489      10.509960
                          8       1   20gyz3             1.447489       8.140980
                          8       1   20gz4              1.447489       3.077001

                          9       1   15dx2              1.719528       4.249869
                          9       1   15dxy              1.719528       7.360988
                          9       1   15dxz              1.719528       7.360988
                          9       1   15dy2              1.719528       4.249869
                          9       1   15dyz              1.719528       7.360988
                          9       1   15dz2              1.719528       4.249869

                         10       1   10px               2.690083       4.910742
                         10       1   10py               2.690083       4.910742
                         10       1   10pz               2.690083       4.910742

                         11       1    3s                3.398643       1.783977

                         12       1   18fx3              4.079789      34.824857
                         12       1   18fx2y             4.079789      77.870748
                         12       1   18fx2z             4.079789      77.870748
                         12       1   18fxy2             4.079789      77.870748
                         12       1   18fxyz             4.079789     134.876093
                         12       1   18fxz2             4.079789      77.870748
                         12       1   18fy3              4.079789      34.824857
                         12       1   18fy2z             4.079789      77.870748
                         12       1   18fyz2             4.079789      77.870748
                         12       1   18fz3              4.079789      34.824857

                         13       1   11px               9.102547      22.536879
                         13       1   11py               9.102547      22.536879
                         13       1   11pz               9.102547      22.536879

                         14       1    4s               10.929094       4.283988

                         15       1   16dx2             29.234258     604.951557
                         15       1   16dxy             29.234258    1047.806833
                         15       1   16dxz             29.234258    1047.806833
                         15       1   16dy2             29.234258     604.951557
                         15       1   16dyz             29.234258    1047.806833
                         15       1   16dz2             29.234258     604.951557

                         16       1   12px              30.338365     101.491646
                         16       1   12py              30.338365     101.491646
                         16       1   12pz              30.338365     101.491646

                         17       1    5s               34.879449      10.229097

                         18       1   13px             100.633172     454.324902
                         18       1   13py             100.633172     454.324902
                         18       1   13pz             100.633172     454.324902

                         19       1    6s              111.091943      24.387766

                         20       1    7s              353.642060      58.120993

       Atomic covalent radius [Angstrom]:                                  1.020

       Atomic van der Waals radius [Angstrom]:                             1.800

     The atoms of this atomic kind are PAW atoms (GAPW):
       Hard Gaussian function radius:                                      1.512
       Rho0 radius:                                                        1.512
       Maximum GTO radius used for PAW projector construction:            24.566

     GAPW Soft Basis Set                                  aug-SZV-MOLOPT-ae_soft

       Number of orbital shell sets:                                           3
       Number of orbital shells:                                               8
       Number of primitive Cartesian functions:                                8
       Number of Cartesian basis functions:                                   19
       Number of spherical basis functions:                                   18
       Norm type:                                                              2

       Normalised Cartesian orbitals:

                        Set   Shell   Orbital            Exponent    Coefficient

                          1       1    1s                0.072000       0.000000
                                                         0.148404       0.047043
                                                         0.287959       0.206056
                                                         0.581913       0.071732
                                                         1.300021      -0.154888
                                                         3.466625      -0.128563

                          1       2    2s                0.072000       0.024465
                                                         0.148404       0.270123
                                                         0.287959      -0.286184
                                                         0.581913       0.001423
                                                         1.300021       0.046778
                                                         3.466625       0.000000

                          1       3    2px               0.072000       0.000000
                                                         0.148404       0.013902
                                                         0.287959       0.147021
                                                         0.581913       0.300295
                                                         1.300021       0.150808
                                                         3.466625      -0.123340
                          1       3    2py               0.072000       0.000000
                                                         0.148404       0.013902
                                                         0.287959       0.147021
                                                         0.581913       0.300295
                                                         1.300021       0.150808
                                                         3.466625      -0.123340
                          1       3    2pz               0.072000       0.000000
                                                         0.148404       0.013902
                                                         0.287959       0.147021
                                                         0.581913       0.300295
                                                         1.300021       0.150808
                                                         3.466625      -0.123340

                          1       4    3px               0.072000      -0.066040
                                                         0.148404       0.050064
                                                         0.287959      -0.069730
                                                         0.581913       0.158592
                                                         1.300021      -0.055990
                                                         3.466625       0.000000
                          1       4    3py               0.072000      -0.066040
                                                         0.148404       0.050064
                                                         0.287959      -0.069730
                                                         0.581913       0.158592
                                                         1.300021      -0.055990
                                                         3.466625       0.000000
                          1       4    3pz               0.072000      -0.066040
                                                         0.148404       0.050064
                                                         0.287959      -0.069730
                                                         0.581913       0.158592
                                                         1.300021      -0.055990
                                                         3.466625       0.000000

                          1       5    3dx2              0.072000       0.001679
                                                         0.148404       0.023049
                                                         0.287959       0.065695
                                                         0.581913       0.132541
                                                         1.300021       0.392654
                                                         3.466625       0.000000
                          1       5    3dxy              0.072000       0.002907
                                                         0.148404       0.039921
                                                         0.287959       0.113787
                                                         0.581913       0.229567
                                                         1.300021       0.680096
                                                         3.466625       0.000000
                          1       5    3dxz              0.072000       0.002907
                                                         0.148404       0.039921
                                                         0.287959       0.113787
                                                         0.581913       0.229567
                                                         1.300021       0.680096
                                                         3.466625       0.000000
                          1       5    3dy2              0.072000       0.001679
                                                         0.148404       0.023049
                                                         0.287959       0.065695
                                                         0.581913       0.132541
                                                         1.300021       0.392654
                                                         3.466625       0.000000
                          1       5    3dyz              0.072000       0.002907
                                                         0.148404       0.039921
                                                         0.287959       0.113787
                                                         0.581913       0.229567
                                                         1.300021       0.680096
                                                         3.466625       0.000000
                          1       5    3dz2              0.072000       0.001679
                                                         0.148404       0.023049
                                                         0.287959       0.065695
                                                         0.581913       0.132541
                                                         1.300021       0.392654
                                                         3.466625       0.000000

                          2       1    1s                3.552198       1.097452
                                                         1.628232       0.247277

                          2       2    2px               3.552198       2.960247
                                                         1.628232       0.266650
                          2       2    2py               3.552198       2.960247
                                                         1.628232       0.266650
                          2       2    2pz               3.552198       2.960247
                                                         1.628232       0.266650

                          3       1    1s         

     AE Potential information for                                            ALL

       Description:                                       All-electron potential
                                          Krack, Parrinello, PCCP 2, 2105 (2000)

       Gaussian exponent of the core charge distribution:               2.834467
       Electronic configuration (s p d ...):                           6  10   0

  3. Atomic kind: C                                     Number of atoms:       8

     Orbital Basis Set                                         aug-SZV-MOLOPT-ae

       Number of orbital shell sets:                                           2
       Number of orbital shells:                                               6
       Number of primitive Cartesian functions:                               13
       Number of Cartesian basis functions:                                   15
       Number of spherical basis functions:                                   14
       Norm type:                                                              2

       Normalised Cartesian orbitals:

                        Set   Shell   Orbital            Exponent    Coefficient

                          1       1    2s                0.070000       0.000000
                                                         0.143687       0.040037
                                                         0.313471       0.177689
                                                         0.721783       0.139661
                                                         1.876046      -0.038599
                                                         6.036200      -0.128975
                                                        30.497239      -0.122578

                          1       2    3s                0.070000      -0.142268
                                                         0.143687       0.288819
                                                         0.313471       0.010360
                                                         0.721783       0.175994
                                                         1.876046       0.000000
                                                         6.036200       0.000000
                                                        30.497239       0.000000

                          1       3    3px               0.070000       0.000000
                                                         0.143687       0.012825
                                                         0.313471       0.142381
                                                         0.721783       0.396426
                                                         1.876046       0.544234
                                                         6.036200       0.508157
                                                        30.497239       0.384077
                          1       3    3py               0.070000       0.000000
                                                         0.143687       0.012825
                                                         0.313471       0.142381
                                                         0.721783       0.396426
                                                         1.876046       0.544234
                                                         6.036200       0.508157
                                                        30.497239       0.384077
                          1       3    3pz               0.070000       0.000000
                                                         0.143687       0.012825
                                                         0.313471       0.142381
                                                         0.721783       0.396426
                                                         1.876046       0.544234
                                                         6.036200       0.508157
                                                        30.497239       0.384077

                          1       4    4px               0.070000       0.076505
                                                         0.143687      -0.086104
                                                         0.313471       0.010230
                                                         0.721783       0.129894
                                                         1.876046       0.000000
                                                         6.036200       0.000000
                                                        30.497239       0.000000
                          1       4    4py               0.070000       0.076505
                                                         0.143687      -0.086104
                                                         0.313471       0.010230
                                                         0.721783       0.129894
                                                         1.876046       0.000000
                                                         6.036200       0.000000
                                                        30.497239       0.000000
                          1       4    4pz               0.070000       0.076505
                                                         0.143687      -0.086104
                                                         0.313471       0.010230
                                                         0.721783       0.129894
                                                         1.876046       0.000000
                                                         6.036200       0.000000
                                                        30.497239       0.000000

                          1       5    4dx2              0.070000       0.004316
                                                         0.143687       0.012639
                                                         0.313471       0.125057
                                                         0.721783       0.080411
                                                         1.876046       0.000000
                                                         6.036200       0.000000
                                                        30.497239       0.000000
                          1       5    4dxy              0.070000       0.007476
                                                         0.143687       0.021892
                                                         0.313471       0.216606
                                                         0.721783       0.139276
                                                         1.876046       0.000000
                                                         6.036200       0.000000
                                                        30.497239       0.000000
                          1       5    4dxz              0.070000       0.007476
                                                         0.143687       0.021892
                                                         0.313471       0.216606
                                                         0.721783       0.139276
                                                         1.876046       0.000000
                                                         6.036200       0.000000
                                                        30.497239       0.000000
                          1       5    4dy2              0.070000       0.004316
                                                         0.143687       0.012639
                                                         0.313471       0.125057
                                                         0.721783       0.080411
                                                         1.876046       0.000000
                                                         6.036200       0.000000
                                                        30.497239       0.000000
                          1       5    4dyz              0.070000       0.007476
                                                         0.143687       0.021892
                                                         0.313471       0.216606
                                                         0.721783       0.139276
                                                         1.876046       0.000000
                                                         6.036200       0.000000
                                                        30.497239       0.000000
                          1       5    4dz2              0.070000       0.004316
                                                         0.143687       0.012639
                                                         0.313471       0.125057
                                                         0.721783       0.080411
                                                         1.876046       0.000000
                                                         6.036200       0.000000
                                                        30.497239       0.000000

                          2       1    1s              742.737049       0.929185
                                                       136.180025       1.402437
                                                        38.098264       1.841991
                                                        13.087782       1.817278
                                                         5.082369       1.004768
                                                         2.093200       0.161650

     RI Auxiliary Basis Set             RI_aug-SZV-MOLOPT-ae_N_RI_048_s_p_d_f_g_

       Number of orbital shell sets:                                          14
       Number of orbital shells:                                              14
       Number of primitive Cartesian functions:                               14
       Number of Cartesian basis functions:                                   62
       Number of spherical basis functions:                                   48
       Norm type:                                                              2

       Normalised Cartesian orbitals:

                        Set   Shell   Orbital            Exponent    Coefficient

                          1       1    1s                0.182132       0.198701

                          2       1    7px               0.213594       0.206979
                          2       1    7py               0.213594       0.206979
                          2       1    7pz               0.213594       0.206979

                          3       1   10dx2              0.381125       0.304282
                          3       1   10dxy              0.381125       0.527033
                          3       1   10dxz              0.381125       0.527033
                          3       1   10dy2              0.381125       0.304282
                          3       1   10dyz              0.381125       0.527033
                          3       1   10dz2              0.381125       0.304282

                          4       1    2s                0.433905       0.381027

                          5       1   12fx3              0.524446       0.344573
                          5       1   12fx2y             0.524446       0.770488
                          5       1   12fx2z             0.524446       0.770488
                          5       1   12fxy2             0.524446       0.770488
                          5       1   12fxyz             0.524446       1.334524
                          5       1   12fxz2             0.524446       0.770488
                          5       1   12fy3              0.524446       0.344573
                          5       1   12fy2z             0.524446       0.770488
                          5       1   12fyz2             0.524446       0.770488
                          5       1   12fz3              0.524446       0.344573

                          6       1    8px               0.915857       1.277099
                          6       1    8py               0.915857       1.277099
                          6       1    8pz               0.915857       1.277099

                          7       1   14gx4              1.217666       1.912659
                          7       1   14gx3y             1.217666       5.060419
                          7       1   14gx3z             1.217666       5.060419
                          7       1   14gx2y2            1.217666       6.532973
                          7       1   14gx2yz            1.217666      11.315442
                          7       1   14gx2z2            1.217666       6.532973
                          7       1   14gxy3             1.217666       5.060419
                          7       1   14gxy2z            1.217666      11.315442
                          7       1   14gxyz2            1.217666      11.315442
                          7       1   14gxz3             1.217666       5.060419
                          7       1   14gy4              1.217666       1.912659
                          7       1   14gy3z             1.217666       5.060419
                          7       1   14gy2z2            1.217666       6.532973
                          7       1   14gyz3             1.217666       5.060419
                          7       1   14gz4              1.217666       1.912659

                          8       1   11dx2              1.581488       3.670921
                          8       1   11dxy              1.581488       6.358221
                          8       1   11dxz              1.581488       6.358221
                          8       1   11dy2              1.581488       3.670921
                          8       1   11dyz              1.581488       6.358221
                          8       1   11dz2              1.581488       3.670921

                          9       1    3s                1.620693       1.023730

                         10       1   13fx3              2.677157      13.496481
                         10       1   13fx2y             2.677157      30.179050
                         10       1   13fx2z             2.677157      30.179050
                         10       1   13fxy2             2.677157      30.179050
                         10       1   13fxyz             2.677157      52.271648
                         10       1   13fxz2             2.677157      30.179050
                         10       1   13fy3              2.677157      13.496481
                         10       1   13fy2z             2.677157      30.179050
                         10       1   13fyz2             2.677157      30.179050
                         10       1   13fz3              2.677157      13.496481

                         11       1    4s                5.999661       2.732154

                         12       1    9px               9.284861      23.102519
                         12       1    9py               9.284861      23.102519
                         12       1    9pz               9.284861      23.102519

                         13       1    5s               22.224963       7.295262

                         14       1    6s               82.329769      19.479498

       Atomic covalent radius [Angstrom]:                                  0.770

       Atomic van der Waals radius [Angstrom]:                             1.700

     The atoms of this atomic kind are PAW atoms (GAPW):
       Hard Gaussian function radius:                                      1.512
       Rho0 radius:                                                        1.512
       Maximum GTO radius used for PAW projector construction:            24.566

     GAPW Soft Basis Set                                  aug-SZV-MOLOPT-ae_soft

       Number of orbital shell sets:                                           2
       Number of orbital shells:                                               6
[...]
 -                                                                             -
 -                                T I M I N G                                  -
 -                                                                             -
 -------------------------------------------------------------------------------
 SUBROUTINE                       CALLS  ASD         SELF TIME        TOTAL TIME
                                MAXIMUM       AVERAGE  MAXIMUM  AVERAGE  MAXIMUM
 CP2K                                 1  1.0    0.039    0.133  350.767  350.771
 qs_energies                          1  2.0    0.002    0.005  350.295  350.298
 qs_energies_properties               1  3.0    0.000    0.000  226.623  226.627
 tddfpt                               1  4.0    0.001    0.002  226.623  226.627
 tddfpt_energies                      1  5.0    0.001    0.007  226.593  226.594
 tddfpt_davidson_solver               1  6.0    0.001    0.001  225.225  225.226
 tddfpt_compute_Aop_evects            8  7.0    0.000    0.000  223.642  223.643
 fhxc_kernel                          8  8.0    0.008    0.015  200.011  200.012
 fft_wrap_pw1pw2                   4747 11.0    0.094    0.117  125.149  133.526
 fft_wrap_pw1pw2_250               3343 12.1    2.650    3.442  117.984  130.561
 scf_env_do_scf                       1  3.0    0.001    0.002  122.515  122.522
 scf_env_do_scf_inner_loop           73  4.0    0.003    0.006  122.514  122.522
 fft3d_ps                          4747 13.0   16.730   23.216  114.521  122.151
 mp_alltoall_z22v                  4747 15.0   92.432   99.566   92.432   99.566
 qs_ks_update_qs_env                 73  5.0    0.000    0.001   89.969   90.026
 rebuild_ks_matrix                   73  6.0    0.000    0.000   89.959   90.016
 qs_ks_build_kohn_sham_matrix        73  7.0    0.012    0.016   89.959   90.016
 qs_rho_update_rho_low              235  7.7    0.004    0.011   73.303   73.329
 calculate_rho_elec                 235  8.7    0.308    0.437   69.714   69.724
 pw_poisson_solve                   233  9.4    1.045    1.410   65.902   68.175
 tddfpt_apply_coulomb               160  9.0    0.003    0.003   61.862   64.172
 yz_to_x                           1870 14.4    1.637    1.856   47.317   52.610
 x_to_yz                           1941 13.7    2.166    3.642   48.780   52.098
 xc_pw_derive                      1401 11.0    0.011    0.012   48.989   50.671
 density_rs2pw                      235  9.7    0.010    0.012   41.943   45.041
 integrate_v_rspace                 233  9.0    0.006    0.009   42.170   43.702
 tddfpt_apply_xc_analytic           160  9.0    0.256    0.374   40.806   42.010
 potential_pw2rs                    233 10.0    0.024    0.031   40.195   40.419
 transfer_pw2rs                    1166 10.9    0.022    0.027   37.255   38.518
 integrate_four_center              393  9.8   13.317   24.078   37.580   37.633
 ps_wavelet_solve                   233 10.4   14.091   19.345   33.593   36.443
 xc_pw_divergence                   233 10.7    0.005    0.006   32.098   33.124
 mp_waitany                       76806 12.7   27.862   31.663   27.862   31.663
 transfer_rs2pw                    1175 10.7    0.029    0.045   25.422   27.355
 grid_collocate_task_list           235  9.7   24.929   27.307   24.929   27.307
 mp_sum_d                          6483  7.5   10.499   24.901   10.499   24.901
 xc_calc_2nd_deriv_analytical       480 10.2    1.144    1.399   23.688   24.332
 prepare_gapw_den                   234  8.7    0.003    0.004   21.681   23.989
 transfer_pw2rs_250                 467 11.7    3.913    4.276   21.595   23.347
 tddfpt_apply_hfx                     8  8.0    0.002    0.002   23.339   23.340
 tddft_hfx_matrix                   320  9.0    0.003    0.004   21.414   21.458
 qs_vxc_create                       73  8.0    0.002    0.003   21.014   21.014
 xc_vxc_pw_create                    73  9.0    0.153    0.224   21.012   21.013
 put_rho0_on_grid                   234  9.7    0.346    0.575   18.538   20.852
 mp_alltoall_d54                    233 11.4    9.797   20.786    9.797   20.786
 mp_sync                           2095 11.5   11.487   20.031   11.487   20.031
 transfer_rs2pw_250                 470 11.7    4.340    4.680   15.523   17.600
 integrate_vhg0_rspace              233  9.4    0.406    0.471   15.957   16.722
 hfx_ks_matrix                       73  8.0    0.002    0.003   16.175   16.200
 fft_wrap_pw1pw2_90                 468 11.9    0.095    0.143    5.867   14.833
 mp_alltoall_d45                    234 11.4   11.560   14.036   11.560   14.036
 mp_alltoall_d11v                 14368 11.6    8.770   12.953    8.770   12.953
 mp_isend_dm3                      9366 12.8    8.338   12.502    8.338   12.502
 sum_up_and_integrate                73  8.0    0.001    0.003   11.845   12.301
 transfer_pw2rs_90                  233 12.0    0.640    0.788    8.770   11.793
 mp_waitall_1                    447058 13.2    9.146   11.633    9.146   11.633
 xc_rho_set_and_dset_create          74 10.0    0.190    0.265    9.935   11.182
 integrate_four_center_main         393 10.8    0.083    0.170   10.005   10.773
 integrate_four_center_bin        42382 11.8    9.922   10.700    9.922   10.700
 mp_sum_dm                        13459  9.9    7.282    8.332    7.282    8.332
 transfer_pw2rs_30                  233 12.0    1.018    1.170    5.979    7.829
 cp2k_distribution_to_z_slices      233 10.4    0.966    1.133    6.601    7.336
 gspace_mixing                       72  5.0    0.094    0.134    6.667    6.678
 Vh_1c_gg_integrals                 233  9.4    0.043    0.413    2.399    6.384
 transfer_rs2pw_90                  235 11.7    0.851    1.013    5.625    5.981
 pw_integral_ab_c1d_c1d_gs          233 10.4    0.624    0.764    2.360    5.352
 rs_grid_zero                      1168 11.9    3.749    4.127    3.749    4.127
 update_ks_atom                     233  8.7    0.129    0.265    2.636    4.045
 mp_bcast_dm                       8854  9.7    2.508    3.950    2.508    3.950
 pw_derive                         2100 11.8    3.524    3.821    3.524    3.821
 calculate_rho_atom_coeff           235  8.7    0.228    0.451    3.585    3.609
 transfer_rs2pw_30                  235 11.7    1.296    1.455    3.281    3.500
 pw_copy                           3180 11.0    3.032    3.442    3.032    3.442
 rs_gather_matrices                 233 10.0    0.005    0.018    1.652    3.291
 gaVxcgb_GC                         233  9.7    0.206    3.246    0.206    3.246
 grid_integrate_task_list           233 10.0    0.316    3.239    0.316    3.239
 pw_gather_p                       2340 13.3    2.562    3.119    2.562    3.119
 broyden_mixing                      72  6.0    2.928    2.974    3.036    3.062
 pw_scatter_p                      2407 12.8    2.543    2.906    2.543    2.906
 mp_max_i                           704  4.9    1.350    2.835    1.350    2.835
 mp_sendrecv_dv                   89770 12.7    2.563    2.814    2.563    2.814
 cp_dbcsr_sm_fm_multiply           1006  8.6    0.011    0.013    2.401    2.799
 calculate_xc_2nd_deriv_atom        160  9.0    0.065    0.311    0.247    2.691
 calculate_rho_atom                 702  9.7    1.260    2.487    1.260    2.487
 pw_copy_to_array                  2340 13.3    1.694    2.466    1.694    2.466
 pw_poisson_rebuild                 233 10.4    0.000    0.000    2.225    2.244
 ps_wavelet_create                    1 10.0    0.000    0.000    2.225    2.244
 RS_z_slice_distribution              1 11.0    0.192    0.278    2.225    2.244
 pw_poisson_set                     234 10.4    0.004    0.005    2.139    2.202
 parallel_gemm_fm                  1505  8.2    0.001    0.001    1.957    2.075
 parallel_gemm_fm_cosma            1505  9.2    1.956    2.074    1.956    2.074
 mp_sum_dv                        21739  8.9    1.597    1.904    1.597    1.904
 xc_functional_eval                 540 10.9    0.001    0.004    0.939    1.846
 pbe_lda_eval                       540 11.9    0.938    1.844    0.938    1.844
 qs_scf_new_mos                      73  5.0    0.003    0.009    1.720    1.787
 dbcsr_complete_redistribute       3376 10.4    0.079    0.100    1.385    1.779
 dbcsr_multiply_generic            1399 10.3    0.034    0.037    1.580    1.650
 pw_axpy                           2498 10.8    1.298    1.540    1.298    1.540
 cp_fm_diag_elpa                    123  7.2    0.000    0.000    1.464    1.488
 pw_zero                           2524 10.6    1.278    1.473    1.278    1.473
 eigensolver_symm                    73  6.0    0.005    0.006    1.421    1.428
 mp_alltoall_i22                   4478 11.4    0.956    1.422    0.956    1.422
 copy_fm_to_dbcsr                  2273  9.5    0.006    0.006    0.893    1.337
 calc_screening_functions             1 10.0    0.689    0.737    1.272    1.324
 cp_fm_diag_elpa_base               123  8.3    0.795    1.258    0.807    1.282
 pw_copy_from_array                2407 12.8    0.975    1.266    0.975    1.266
 calculate_vxc_atom                  73  8.0    0.030    0.077    1.152    1.153
 powell_optimize                 735449 11.0    1.067    1.102    1.067    1.102
 cp_dbcsr_sm_fm_multiply_core      1006  9.6    0.001    0.002    1.025    1.092
 fft_wrap_pw1pw2_30                 468 11.9    0.012    0.016    0.863    1.083
 transfer_rs2pw_10                  235 11.7    0.386    0.470    0.963    1.081
 cp_fm_redistribute_end             123  8.2    0.526    1.057    0.535    1.063
 transfer_pw2rs_10                  233 12.0    0.271    0.313    0.890    0.986
 tddfpt_orthonormalize_psi1_psi       9  6.9    0.008    0.009    0.712    0.960
 mp_alltoall_z11v                   936 14.9    0.752    0.953    0.752    0.953
 copy_dbcsr_to_fm                  1101  9.3    0.008    0.009    0.820    0.904
 calculate_rho0_atom                702  9.7    0.834    0.896    0.834    0.896
 calc_pair_dist_radii                 1 10.0    0.345    0.396    0.830    0.880
 mp_irecv_dm3                      9366 12.8    0.270    0.812    0.270    0.812
 multiply_cannon                   1399 11.3    0.083    0.090    0.680    0.756
 mp_rank_compare                   4747 14.0    0.678    0.733    0.678    0.733
 cp_dbcsr_plus_fm_fm_t              233  8.4    0.002    0.002    0.677    0.695
 prepare_dr1dr                      480 11.2    0.492    0.670    0.492    0.670
 tddfpt_print_nto_analysis            1  6.0    0.002    0.004    0.607    0.630
 offload_free_buffer                241 10.1    0.477    0.626    0.477    0.626
 qs_energies_init_hamiltonians        1  3.0    0.003    0.005    0.606    0.606
 build_core_hamiltonian_matrix        1  4.0    0.001    0.008    0.589    0.591
 overlap_condnum                      1  5.0    0.002    0.007    0.571    0.590
 cp_fm_trace_a1b1t1_aa            13090  8.0    0.023    0.045    0.402    0.571
 multiply_cannon_loop              1399 12.3    0.088    0.091    0.466    0.536
 tddfpt_compute_residual_vects        7  7.0    0.000    0.000    0.532    0.533
 xz_to_yz                           470 13.7    0.025    0.051    0.443    0.518
 yz_to_xz                           466 14.0    0.032    0.038    0.372    0.512
 make_m2s                          2798 11.3    0.025    0.026    0.494    0.511
 arnoldi_conjugate_gradient           5  6.0    0.009    0.011    0.482    0.482
 mp_sum_l                          5415 10.5    0.379    0.479    0.379    0.479
 init_scf_run                         1  3.0    0.002    0.007    0.457    0.458
 make_images                       2798 12.3    0.074    0.083    0.431    0.449
 tddfpt_construct_ground_state_       1  6.0    0.000    0.001    0.435    0.448
 integrate_four_center_getP         393 10.8    0.068    0.075    0.421    0.441
 fft_wrap_pw1pw2_10                 468 11.9    0.004    0.005    0.341    0.430
 scf_env_initial_rho_setup            1  4.0    0.001    0.002    0.420    0.420
 mp_isendrecv_dv                 239132 12.3    0.246    0.417    0.246    0.417
 mp_isend_dv                     135598 13.5    0.169    0.402    0.169    0.402
 integrate_four_center_dist_KS      393 10.8    0.068    0.081    0.349    0.355
 cp_fm_geeig                         20  7.0    0.001    0.001    0.348    0.349
 dbcsr_desymmetrize_deep           1102 10.3    0.016    0.019    0.248    0.336
 dbcsr_sym_matrix_vector_mult      2700  7.0    0.019    0.023    0.265    0.292
 tddfpt_apply_energy_diff             8  8.0    0.001    0.001    0.291    0.291
 tddfpt_orthogonalize_psi1_psi0       9  6.9    0.000    0.000    0.247    0.276
 make_images_sizes                 2798 13.3    0.002    0.002    0.243    0.264
 mp_alltoall_i44                   2798 14.3    0.241    0.262    0.241    0.262
 scale_and_distribute               466 11.4    0.177    0.246    0.177    0.246
 multiply_cannon_metrocomm3       33576 13.3    0.047    0.048    0.141    0.241
 mp_cart_sub                       2206 11.3    0.238    0.240    0.238    0.240
 calculate_dm_sparse                 73  6.0    0.000    0.001    0.166    0.180
 mp_cart_create                    1805 10.7    0.160    0.177    0.162    0.179
 create_qs_kind_set                   1  2.0    0.000    0.001    0.154    0.174
 read_qs_kind                         3  3.0    0.067    0.086    0.154    0.174
 create_kernel_env                    1  6.0    0.000    0.000    0.152    0.170
 xc_prep_2nd_deriv                    1  7.0    0.000    0.000    0.152    0.170
 mp_irecv_dv                     133586 13.5    0.083    0.170    0.083    0.170
 dbcsr_rep_row_to_rep_col_vec      2700  8.0    0.007    0.007    0.083    0.159
 dbcsr_finalize                   10905 11.3    0.018    0.031    0.107    0.157
 cube_transpose_2                   470 13.7    0.008    0.010    0.086    0.152
 qs_init_subsys                       1  2.0    0.018    0.037    0.149    0.150
 pw_scale                           612  9.5    0.100    0.149    0.100    0.149
 dbcsr_col_vec_to_rep_row          2700  8.0    0.009    0.010    0.079    0.147
 xc_2nd_deriv_of_r                  320 10.0    0.002    0.023    0.013    0.146
 cp_fm_redistribute_start           123  8.2    0.090    0.100    0.121    0.146
 qs_env_setup                         1  3.0    0.001    0.002    0.125    0.144
 qs_env_rebuild_pw_env                2  3.5    0.000    0.002    0.122    0.142
 pw_env_rebuild                       1  5.0    0.004    0.008    0.122    0.142
 rs_grid_create                     239 10.3    0.001    0.002    0.021    0.140
 offload_create_buffer              241 11.2    0.020    0.138    0.020    0.138
 tddfpt_is_nonorthogonal_psi1_p       7  7.0    0.000    0.000    0.137    0.137
 multiply_cannon_metrocomm1       33576 13.3    0.018    0.019    0.044    0.136
 integrate_four_center_load         393 10.8    0.001    0.004    0.070    0.131
 hfx_load_balance                     1 11.0    0.002    0.007    0.069    0.130
 mp_max_d                           215  8.3    0.024    0.130    0.024    0.130
 multiply_cannon_metrocomm4       32177 13.3    0.048    0.056    0.092    0.130
 pw_grid_setup                        4  6.0    0.000    0.001    0.100    0.122
 pw_grid_setup_internal               4  7.0    0.001    0.002    0.100    0.122
 cp_fm_maxabsval                    140  8.0    0.000    0.000    0.017    0.120
 cube_transpose_1                   466 14.0    0.007    0.010    0.068    0.118
 rs_scatter_matrices                235  9.7    0.002    0.005    0.008    0.113
 parser_read_line                 25932  4.0    0.004    0.004    0.087    0.113
 hfx_load_balance_range               1 12.0    0.000    0.000    0.050    0.111
 mp_allgather_i34                  1399 12.3    0.087    0.110    0.087    0.110
 parser_read_line_low                34  5.0    0.002    0.021    0.083    0.109
 multiply_cannon_metrocomm2       29379 13.3    0.043    0.051    0.072    0.109
 broadcast_input_information         34  6.0    0.010    0.011    0.081    0.107
 write_mo_set_to_restart             73  5.0    0.001    0.050    0.042    0.105
 cp_fm_symm                          73  7.0    0.097    0.102    0.097    0.102
 multiply_cannon_multrec          33576 13.3    0.026    0.092    0.029    0.096
 dbcsr_create_new                 36639 11.0    0.064    0.071    0.087    0.096
 dbcsr_merge_all                   9174 12.4    0.047    0.074    0.069    0.096
 make_images_data                  2798 13.3    0.018    0.024    0.053    0.093
 dbcsr_add_d                       4106  7.0    0.002    0.002    0.016    0.092
 scf_post_calculation_gpw             1  3.0    0.000    0.001    0.090    0.091
 dbcsr_add_anytype                 4106  8.0    0.003    0.018    0.014    0.090
 write_available_results              1  4.0    0.002    0.007    0.089    0.089
 write_mo_free_results                1  5.0    0.003    0.005    0.087    0.089
 mp_bcast_i_src                     136  7.0    0.048    0.077    0.048    0.077
 tddfpt_compute_ritz_vects            8  7.0    0.003    0.003    0.071    0.072
 mp_sum_iv                          636  7.4    0.038    0.071    0.038    0.071
 mp_alltoall_i11v                 11230 11.4    0.037    0.071    0.037    0.071
 cp_fm_write_unformatted             24  7.0    0.062    0.064    0.062    0.066
 dbcsr_copy                       14311  8.3    0.020    0.043    0.043    0.066
 mp_bcast_dv                       2797  9.0    0.041    0.063    0.041    0.063
 mp_bcast_b_src                     196  7.8    0.049    0.057    0.049    0.057
 dbcsr_iterator_start             55977 10.3    0.034    0.042    0.043    0.055
 write_mo_set_low                     4  6.0    0.000    0.000    0.041    0.055
 hybrid_alltoall_any               3900 13.4    0.018    0.023    0.035    0.054
 mp_bcast_am_src                     34  7.0    0.021    0.052    0.022    0.052
 copy_fm_to_dbcsr_bc               2273 10.5    0.012    0.014    0.045    0.050
 pw_grid_sort                         4  8.0    0.035    0.035    0.048    0.049
 cp_fm_power                          1  6.0    0.000    0.002    0.049    0.049
 external_control                    73  5.0    0.000    0.045    0.047    0.047
 vxc_of_r_new                       146  9.0    0.000    0.004    0.004    0.043
 dbcsr_gershgorin_norm                1  6.0    0.001    0.009    0.021    0.041
 calculate_hirshfeld_normalizat       1  6.0    0.001    0.007    0.038    0.040
 cp_fm_cholesky_decompose            20  8.0    0.037    0.039    0.037    0.039
 hirshfeld_integration                1  6.0    0.001    0.006    0.039    0.039
 dbcsr_special_finalize            5596 13.3    0.008    0.009    0.029    0.038
 dbcsr_work_create                15872 12.3    0.017    0.023    0.026    0.037
 cp_fm_triangular_multiply           60  8.0    0.036    0.037    0.036    0.037
 cp_fm_triangular_invert             20  8.0    0.035    0.036    0.035    0.036
 mp_cart_rank                    179360 10.9    0.030    0.036    0.030    0.036
 dbcsr_data_new                  113701 12.4    0.031    0.035    0.031    0.035
 -------------------------------------------------------------------------------

 The number of warnings for this run is : 1
 
 -------------------------------------------------------------------------------
  **** **** ******  **  PROGRAM ENDED AT                 2025-03-27 10:27:18.628
 ***** ** ***  *** **   PROGRAM RAN ON                                  n2cn0472
 **    ****   ******    PROGRAM RAN BY                                  metdyn02
 ***** **    ** ** **   PROGRAM PROCESS ID                               1205021
  **** **  *******  **  PROGRAM STOPPED IN /scratch/hpc-prf-metdyn/metdyn02_Remi
                                           /10_MOL/05_MOL/aUKBqsEOTmq69kFe5R_nOg
                                           /5k_set_final_qzvp/VENQEL/SZV/TDDFT/1
                                           e-4
