SIRIUS 7.6.1, git hash: https://api.github.com/repos/electronic-structure/SIRIUS/git/ref/tags/v7.6.1
 DBCSR| CPU Multiplication driver                                           XSMM (U)
 DBCSR| Multrec recursion limit                                              512 (U)
 DBCSR| Multiplication stack size                                           1000 (D)
 DBCSR| Maximum elements for images                                    UNLIMITED (U)
 DBCSR| Multiplicative factor virtual images                                   1 (U)
 DBCSR| Use multiplication densification                                       T (D)
 DBCSR| Multiplication size stacks                                             3 (U)
 DBCSR| Use memory pool for CPU allocation                                     F (U)
 DBCSR| Number of 3D layers                                               SINGLE (U)
 DBCSR| Use MPI memory allocation                                              F (U)
 DBCSR| Use RMA algorithm                                                      F (U)
 DBCSR| Use Communication thread                                               T (U)
 DBCSR| Communication thread load                                             60 (D)
 DBCSR| MPI: My process id                                                     0
 DBCSR| MPI: Number of processes                                              80
 DBCSR| OMP: Current number of threads                                         8
 DBCSR| OMP: Max number of threads                                             8
 DBCSR| Split modifier for TAS multiplication algorithm                  1.0E+00 (U)


  **** **** ******  **  PROGRAM STARTED AT               2025-05-05 03:57:23.070
 ***** ** ***  *** **   PROGRAM STARTED ON                              n2cn0206
 **    ****   ******    PROGRAM STARTED BY                              metdyn02
 ***** **    ** ** **   PROGRAM PROCESS ID                               3677565
  **** **  *******  **  PROGRAM STARTED IN /scratch/hpc-prf-metdyn/metdyn02_Remi
                                           /10_MOL/05_MOL/aUKBqsEOTmq69kFe5R_nOg
                                           /5k_set_final_qzvp/DUQPAH/SZV/GW+BSE/
                                           1e-4

 CP2K| version string:                 CP2K version 2025.1 (Development Version)
 CP2K| source code revision number:                                  git:4803c37
 CP2K| cp2kflags: omp libint fftw3 libxc libgrpp elpa parallel scalapack mpi_f08
 CP2K|             cosma xsmm plumed2 spglib sirius libvori libbqb libvdwxc hdf5
 CP2K| is freely available from                            https://www.cp2k.org/
 CP2K| Program compiled at                         Thu Apr 10 12:05:05 CEST 2025
 CP2K| Program compiled on                                              n2login1
 CP2K| Program compiled for                                                local
 CP2K| Data directory path    /opt/software/pc2/EB-SW/software/CP2K/2024.1-foss-
 CP2K| Input file name                                                    GW.inp

 GLOBAL| Force Environment number                                              1
 GLOBAL| Basis set file name            /scratch/hpc-prf-metdyn/metdyn02_Remi/BA
 GLOBAL| Potential file name            /pc2/groups/hpc-prf-metdyn/metdyn02_Remi
 GLOBAL| MM Potential file name                                     MM_POTENTIAL
 GLOBAL| Coordinate file name                                      __STD_INPUT__
 GLOBAL| Method name                                                        CP2K
 GLOBAL| Project name                                                       MoS2
 GLOBAL| Run type                                                         ENERGY
 GLOBAL| FFT library                                                       FFTW3
 GLOBAL| Diagonalization library                                            ELPA
 GLOBAL| DGEMM library                                                      BLAS
 GLOBAL| Minimum number of eigenvectors for ELPA usage                        16
 GLOBAL| Orthonormality check for eigenvectors                          DISABLED
 GLOBAL| Matrix multiplication library                                     COSMA
 GLOBAL| All-to-all communication in single precision                          F
 GLOBAL| FFTs using library dependent lengths                                  F
 GLOBAL| Grid backend                                                       AUTO
 GLOBAL| Global print level                                               MEDIUM
 GLOBAL| MPI I/O enabled                                                       T
 GLOBAL| Total number of message passing processes                            80
 GLOBAL| Number of threads for this process                                    8
 GLOBAL| This output is from process                                           0
 GLOBAL| OpenMP stack size per thread (OMP_STACKSIZE)                    default
 GLOBAL| CPU model name                          AMD EPYC 7763 64-Core Processor
 GLOBAL| CPUID                                                              1002

 MEMORY| system memory details [Kb]
 MEMORY|                        rank 0           min           max       average
 MEMORY| MemTotal            263899252     263899252     263901636     263899380
 MEMORY| MemFree             254841232     249132124     255060852     251623862
 MEMORY| Buffers                 35528         20604        330256        150171
 MEMORY| Cached                3999196       3999196       7175584       5514016
 MEMORY| Slab                  1633756       1516108       2520516       2079434
 MEMORY| SReclaimable           277196        228628        569272        369987
 MEMORY| MemLikelyFree       259153152     256680976     259390004     257658037


 *** Fundamental physical constants (SI units) ***

 *** Literature: B. J. Mohr and B. N. Taylor,
 ***             CODATA recommended values of the fundamental physical
 ***             constants: 2006, Web Version 5.1
 ***             http://physics.nist.gov/constants

 Speed of light in vacuum [m/s]                             2.99792458000000E+08
 Magnetic constant or permeability of vacuum [N/A**2]       1.25663706143592E-06
 Electric constant or permittivity of vacuum [F/m]          8.85418781762039E-12
 Planck constant (h) [J*s]                                  6.62606896000000E-34
 Planck constant (h-bar) [J*s]                              1.05457162825177E-34
 Elementary charge [C]                                      1.60217648700000E-19
 Electron mass [kg]                                         9.10938215000000E-31
 Electron g factor [ ]                                     -2.00231930436220E+00
 Proton mass [kg]                                           1.67262163700000E-27
 Fine-structure constant                                    7.29735253760000E-03
 Rydberg constant [1/m]                                     1.09737315685270E+07
 Avogadro constant [1/mol]                                  6.02214179000000E+23
 Boltzmann constant [J/K]                                   1.38065040000000E-23
 Atomic mass unit [kg]                                      1.66053878200000E-27
 Bohr radius [m]                                            5.29177208590000E-11

 *** Conversion factors ***

 [u] -> [a.u.]                                              1.82288848426455E+03
 [Angstrom] -> [Bohr] = [a.u.]                              1.88972613288564E+00
 [a.u.] = [Bohr] -> [Angstrom]                              5.29177208590000E-01
 [a.u.] -> [s]                                              2.41888432650478E-17
 [a.u.] -> [fs]                                             2.41888432650478E-02
 [a.u.] -> [J]                                              4.35974393937059E-18
 [a.u.] -> [N]                                              8.23872205491840E-08
 [a.u.] -> [K]                                              3.15774647902944E+05
 [a.u.] -> [kJ/mol]                                         2.62549961709828E+03
 [a.u.] -> [kcal/mol]                                       6.27509468713739E+02
 [a.u.] -> [Pa]                                             2.94210107994716E+13
 [a.u.] -> [bar]                                            2.94210107994716E+08
 [a.u.] -> [atm]                                            2.90362800883016E+08
 [a.u.] -> [eV]                                             2.72113838565563E+01
 [a.u.] -> [Hz]                                             6.57968392072181E+15
 [a.u.] -> [1/cm] (wave numbers)                            2.19474631370540E+05
 [a.u./Bohr**2] -> [1/cm]                                   5.14048714338585E+03
 

 CELL_TOP| Volume [angstrom^3]:                                     27000.000000
 CELL_TOP| Vector a [angstrom    30.000     0.000     0.000   |a| =    30.000000
 CELL_TOP| Vector b [angstrom     0.000    30.000     0.000   |b| =    30.000000
 CELL_TOP| Vector c [angstrom     0.000     0.000    30.000   |c| =    30.000000
 CELL_TOP| Angle (b,c), alpha [degree]:                                90.000000
 CELL_TOP| Angle (a,c), beta  [degree]:                                90.000000
 CELL_TOP| Angle (a,b), gamma [degree]:                                90.000000
 CELL_TOP| Numerically orthorhombic:                                         YES
 CELL_TOP| Periodicity                                                      NONE

 GENERATE|  Preliminary Number of Bonds generated:                             0
 GENERATE|  Achieved consistency in connectivity generation.

 CELL| Volume [angstrom^3]:                                         27000.000000
 CELL| Vector a [angstrom]:      30.000     0.000     0.000   |a| =    30.000000
 CELL| Vector b [angstrom]:       0.000    30.000     0.000   |b| =    30.000000
 CELL| Vector c [angstrom]:       0.000     0.000    30.000   |c| =    30.000000
 CELL| Angle (b,c), alpha [degree]:                                    90.000000
 CELL| Angle (a,c), beta  [degree]:                                    90.000000
 CELL| Angle (a,b), gamma [degree]:                                    90.000000
 CELL| Numerically orthorhombic:                                             YES
 CELL| Periodicity                                                          NONE

 CELL_REF| Volume [angstrom^3]:                                     27000.000000
 CELL_REF| Vector a [angstrom    30.000     0.000     0.000   |a| =    30.000000
 CELL_REF| Vector b [angstrom     0.000    30.000     0.000   |b| =    30.000000
 CELL_REF| Vector c [angstrom     0.000     0.000    30.000   |c| =    30.000000
 CELL_REF| Angle (b,c), alpha [degree]:                                90.000000
 CELL_REF| Angle (a,c), beta  [degree]:                                90.000000
 CELL_REF| Angle (a,b), gamma [degree]:                                90.000000
 CELL_REF| Numerically orthorhombic:                                         YES
 CELL_REF| Periodicity                                                      NONE

 *******************************************************************************
 *******************************************************************************
 **                                                                           **
 **     #####                         ##              ##                      **
 **    ##   ##            ##          ##              ##                      **
 **   ##     ##                       ##            ######                    **
 **   ##     ##  ##   ##  ##   #####  ##  ##   ####   ##    #####    #####    **
 **   ##     ##  ##   ##  ##  ##      ## ##   ##      ##   ##   ##  ##   ##   **
 **   ##  ## ##  ##   ##  ##  ##      ####     ###    ##   ######   ######    **
 **    ##  ###   ##   ##  ##  ##      ## ##      ##   ##   ##       ##        **
 **     #######   #####   ##   #####  ##  ##  ####    ##    #####   ##        **
 **           ##                                                    ##        **
 **                                                                           **
 **                                                ... make the atoms dance   **
 **                                                                           **
 **            Copyright (C) by CP2K developers group (2000-2025)             **
 **                      J. Chem. Phys. 152, 194103 (2020)                    **
 **                                                                           **
 *******************************************************************************

 DFT| Spin restricted Kohn-Sham (RKS) calculation                            RKS
 DFT| Multiplicity                                                             1
 DFT| Number of spin states                                                    1
 DFT| Charge                                                                   0
 DFT| Self-interaction correction (SIC)                                       NO
 DFT| Cutoffs: density                                              1.000000E-10
 DFT|          gradient                                             1.000000E-10
 DFT|          tau                                                  1.000000E-10
 DFT|          cutoff_smoothing_range                               0.000000E+00
 DFT| XC density smoothing                                                  NONE
 DFT| XC derivatives                                                          PW

 FUNCTIONAL| PBE:
 FUNCTIONAL| J.P.Perdew, K.Burke, M.Ernzerhof, Phys. Rev. Letter, vol. 77, n 18,
 FUNCTIONAL|  pp. 3865-3868, (1996)sx=0.750sc=1.000{spin unpolarized}           


 QS| Method:                                                                GAPW
 QS| Density plane wave grid type                        NON-SPHERICAL FULLSPACE
 QS| Number of grid levels:                                                    4
 QS| Density cutoff [a.u.]:                                                250.0
 QS| Multi grid cutoff [a.u.]: 1) grid level                               250.0
 QS|                           2) grid level                                83.3
 QS|                           3) grid level                                27.8
 QS|                           4) grid level                                 9.3
 QS| Grid level progression factor:                                          3.0
 QS| Relative density cutoff [a.u.]:                                        50.0
 QS| Interaction thresholds: eps_pgf_orb:                                1.0E-12
 QS|                         eps_filter_matrix:                          0.0E+00
 QS|                         eps_core_charge:                            1.0E-14
 QS|                         eps_rho_gspace:                             1.0E-12
 QS|                         eps_rho_rspace:                             1.0E-12
 QS|                         eps_gvg_rspace:                             1.0E-06
 QS|                         eps_ppl:                                    1.0E-02
 QS|                         eps_ppnl:                                   1.0E-08
 QS| GAPW|      One center basis from orbital basis primitives
 QS| GAPW|                   eps_fit:                                    1.0E-04
 QS| GAPW|                   eps_iso:                                    1.0E-12
 QS| GAPW|                   eps_svd:                                    1.0E-08
 QS| GAPW|                   eps_cpc:                                    1.0E-12
 QS| GAPW|   atom-r-grid: quadrature:                                     GC_LOG
 QS| GAPW|      atom-s-grid:  max l :                                          4
 QS| GAPW|      max_l_rho0 :                                                   2


 ATOMIC KIND INFORMATION

  1. Atomic kind: C                                     Number of atoms:       6

     Orbital Basis Set                                         aug-SZV-MOLOPT-ae

       Number of orbital shell sets:                                           2
       Number of orbital shells:                                               6
       Number of primitive Cartesian functions:                               13
       Number of Cartesian basis functions:                                   15
       Number of spherical basis functions:                                   14
       Norm type:                                                              2

       Normalised Cartesian orbitals:

                        Set   Shell   Orbital            Exponent    Coefficient

                          1       1    2s                0.070000       0.000000
                                                         0.143687       0.040037
                                                         0.313471       0.177689
                                                         0.721783       0.139661
                                                         1.876046      -0.038599
                                                         6.036200      -0.128975
                                                        30.497239      -0.122578

                          1       2    3s                0.070000      -0.142268
                                                         0.143687       0.288819
                                                         0.313471       0.010360
                                                         0.721783       0.175994
                                                         1.876046       0.000000
                                                         6.036200       0.000000
                                                        30.497239       0.000000

                          1       3    3px               0.070000       0.000000
                                                         0.143687       0.012825
                                                         0.313471       0.142381
                                                         0.721783       0.396426
                                                         1.876046       0.544234
                                                         6.036200       0.508157
                                                        30.497239       0.384077
                          1       3    3py               0.070000       0.000000
                                                         0.143687       0.012825
                                                         0.313471       0.142381
                                                         0.721783       0.396426
                                                         1.876046       0.544234
                                                         6.036200       0.508157
                                                        30.497239       0.384077
                          1       3    3pz               0.070000       0.000000
                                                         0.143687       0.012825
                                                         0.313471       0.142381
                                                         0.721783       0.396426
                                                         1.876046       0.544234
                                                         6.036200       0.508157
                                                        30.497239       0.384077

                          1       4    4px               0.070000       0.076505
                                                         0.143687      -0.086104
                                                         0.313471       0.010230
                                                         0.721783       0.129894
                                                         1.876046       0.000000
                                                         6.036200       0.000000
                                                        30.497239       0.000000
                          1       4    4py               0.070000       0.076505
                                                         0.143687      -0.086104
                                                         0.313471       0.010230
                                                         0.721783       0.129894
                                                         1.876046       0.000000
                                                         6.036200       0.000000
                                                        30.497239       0.000000
                          1       4    4pz               0.070000       0.076505
                                                         0.143687      -0.086104
                                                         0.313471       0.010230
                                                         0.721783       0.129894
                                                         1.876046       0.000000
                                                         6.036200       0.000000
                                                        30.497239       0.000000

                          1       5    4dx2              0.070000       0.004316
                                                         0.143687       0.012639
                                                         0.313471       0.125057
                                                         0.721783       0.080411
                                                         1.876046       0.000000
                                                         6.036200       0.000000
                                                        30.497239       0.000000
                          1       5    4dxy              0.070000       0.007476
                                                         0.143687       0.021892
                                                         0.313471       0.216606
                                                         0.721783       0.139276
                                                         1.876046       0.000000
                                                         6.036200       0.000000
                                                        30.497239       0.000000
                          1       5    4dxz              0.070000       0.007476
                                                         0.143687       0.021892
                                                         0.313471       0.216606
                                                         0.721783       0.139276
                                                         1.876046       0.000000
                                                         6.036200       0.000000
                                                        30.497239       0.000000
                          1       5    4dy2              0.070000       0.004316
                                                         0.143687       0.012639
                                                         0.313471       0.125057
                                                         0.721783       0.080411
                                                         1.876046       0.000000
                                                         6.036200       0.000000
                                                        30.497239       0.000000
                          1       5    4dyz              0.070000       0.007476
                                                         0.143687       0.021892
                                                         0.313471       0.216606
                                                         0.721783       0.139276
                                                         1.876046       0.000000
                                                         6.036200       0.000000
                                                        30.497239       0.000000
                          1       5    4dz2              0.070000       0.004316
                                                         0.143687       0.012639
                                                         0.313471       0.125057
                                                         0.721783       0.080411
                                                         1.876046       0.000000
                                                         6.036200       0.000000
                                                        30.497239       0.000000

                          2       1    1s              742.737049       0.929185
                                                       136.180025       1.402437
                                                        38.098264       1.841991
                                                        13.087782       1.817278
                                                         5.082369       1.004768
                                                         2.093200       0.161650

     RI Auxiliary Basis Set             RI_aug-SZV-MOLOPT-ae_N_RI_048_s_p_d_f_g_

       Number of orbital shell sets:                                          14
       Number of orbital shells:                                              14
       Number of primitive Cartesian functions:                               14
       Number of Cartesian basis functions:                                   62
       Number of spherical basis functions:                                   48
       Norm type:                                                              2

       Normalised Cartesian orbitals:

                        Set   Shell   Orbital            Exponent    Coefficient

                          1       1    1s                0.182132       0.198701

                          2       1    7px               0.213594       0.206979
                          2       1    7py               0.213594       0.206979
                          2       1    7pz               0.213594       0.206979

                          3       1   10dx2              0.381125       0.304282
                          3       1   10dxy              0.381125       0.527033
                          3       1   10dxz              0.381125       0.527033
                          3       1   10dy2              0.381125       0.304282
                          3       1   10dyz              0.381125       0.527033
                          3       1   10dz2              0.381125       0.304282

                          4       1    2s                0.433905       0.381027

                          5       1   12fx3              0.524446       0.344573
                          5       1   12fx2y             0.524446       0.770488
                          5       1   12fx2z             0.524446       0.770488
                          5       1   12fxy2             0.524446       0.770488
                          5       1   12fxyz             0.524446       1.334524
                          5       1   12fxz2             0.524446       0.770488
                          5       1   12fy3              0.524446       0.344573
                          5       1   12fy2z             0.524446       0.770488
                          5       1   12fyz2             0.524446       0.770488
                          5       1   12fz3              0.524446       0.344573

                          6       1    8px               0.915857       1.277099
                          6       1    8py               0.915857       1.277099
                          6       1    8pz               0.915857       1.277099

                          7       1   14gx4              1.217666       1.912659
                          7       1   14gx3y             1.217666       5.060419
                          7       1   14gx3z             1.217666       5.060419
                          7       1   14gx2y2            1.217666       6.532973
                          7       1   14gx2yz            1.217666      11.315442
                          7       1   14gx2z2            1.217666       6.532973
                          7       1   14gxy3             1.217666       5.060419
                          7       1   14gxy2z            1.217666      11.315442
                          7       1   14gxyz2            1.217666      11.315442
                          7       1   14gxz3             1.217666       5.060419
                          7       1   14gy4              1.217666       1.912659
                          7       1   14gy3z             1.217666       5.060419
                          7       1   14gy2z2            1.217666       6.532973
                          7       1   14gyz3             1.217666       5.060419
                          7       1   14gz4              1.217666       1.912659

                          8       1   11dx2              1.581488       3.670921
                          8       1   11dxy              1.581488       6.358221
                          8       1   11dxz              1.581488       6.358221
                          8       1   11dy2              1.581488       3.670921
                          8       1   11dyz              1.581488       6.358221
                          8       1   11dz2              1.581488       3.670921

                          9       1    3s                1.620693       1.023730

                         10       1   13fx3              2.677157      13.496481
                         10       1   13fx2y             2.677157      30.179050
                         10       1   13fx2z             2.677157      30.179050
                         10       1   13fxy2             2.677157      30.179050
                         10       1   13fxyz             2.677157      52.271648
                         10       1   13fxz2             2.677157      30.179050
                         10       1   13fy3              2.677157      13.496481
                         10       1   13fy2z             2.677157      30.179050
                         10       1   13fyz2             2.677157      30.179050
                         10       1   13fz3              2.677157      13.496481

                         11       1    4s                5.999661       2.732154

                         12       1    9px               9.284861      23.102519
                         12       1    9py               9.284861      23.102519
                         12       1    9pz               9.284861      23.102519

                         13       1    5s               22.224963       7.295262

                         14       1    6s               82.329769      19.479498

       Atomic covalent radius [Angstrom]:                                  0.770

       Atomic van der Waals radius [Angstrom]:                             1.700

     The atoms of this atomic kind are PAW atoms (GAPW):
       Hard Gaussian function radius:                                      1.512
       Rho0 radius:                                                        1.512
       Maximum GTO radius used for PAW projector construction:            24.566

     GAPW Soft Basis Set                                  aug-SZV-MOLOPT-ae_soft

       Number of orbital shell sets:                                           2
       Number of orbital shells:                                               6
       Number of primitive Cartesian functions:                                6
       Number of Cartesian basis functions:                                   15
       Number of spherical basis functions:                                   14
       Norm type:                                                              2

       Normalised Cartesian orbitals:

                        Set   Shell   Orbital            Exponent    Coefficient

                          1       1    2s                0.070000       0.000000
                                                         0.143687       0.040037
                                                         0.313471       0.177689
                                                         0.721783       0.139661
                                                         1.876046      -0.038599

                          1       2    3s                0.070000      -0.142268
                                                         0.143687       0.288819
                                                         0.313471       0.010360
                                                         0.721783       0.175994
                                                         1.876046       0.000000

                          1       3    3px               0.070000       0.000000
                                                         0.143687       0.012825
                                                         0.313471       0.142381
                                                         0.721783       0.396426
                                                         1.876046       0.544234
                          1       3    3py               0.070000       0.000000
                                                         0.143687       0.012825
                                                         0.313471       0.142381
                                                         0.721783       0.396426
                                                         1.876046       0.544234
                          1       3    3pz               0.070000       0.000000
                                                         0.143687       0.012825
                                                         0.313471       0.142381
                                                         0.721783       0.396426
                                                         1.876046       0.544234

                          1       4    4px               0.070000       0.076505
                                                         0.143687      -0.086104
                                                         0.313471       0.010230
                                                         0.721783       0.129894
                                                         1.876046       0.000000
                          1       4    4py               0.070000       0.076505
                                                         0.143687      -0.086104
                                                         0.313471       0.010230
                                                         0.721783       0.129894
                                                         1.876046       0.000000
                          1       4    4pz               0.070000       0.076505
                                                         0.143687      -0.086104
                                                         0.313471       0.010230
                                                         0.721783       0.129894
                                                         1.876046       0.000000

                          1       5    4dx2              0.070000       0.004316
                                                         0.143687       0.012639
                                                         0.313471       0.125057
                                                         0.721783       0.080411
                                                         1.876046       0.000000
                          1       5    4dxy              0.070000       0.007476
                                                         0.143687       0.021892
                                                         0.313471       0.216606
                                                         0.721783       0.139276
                                                         1.876046       0.000000
                          1       5    4dxz              0.070000       0.007476
                                                         0.143687       0.021892
                                                         0.313471       0.216606
                                                         0.721783       0.139276
                                                         1.876046       0.000000
                          1       5    4dy2              0.070000       0.004316
                                                         0.143687       0.012639
                                                         0.313471       0.125057
                                                         0.721783       0.080411
                                                         1.876046       0.000000
                          1       5    4dyz              0.070000       0.007476
                                                         0.143687       0.021892
                                                         0.313471       0.216606
                                                         0.721783       0.139276
                                                         1.876046       0.000000
                          1       5    4dz2              0.070000       0.004316
                                                         0.143687       0.012639
                                                         0.313471       0.125057
                                                         0.721783       0.080411
                                                         1.876046       0.000000

                          2       1    1s                2.093200       0.161650

     AE Potential information for                                            ALL

       Description:                                       All-electron potential
                                          Krack, Parrinello, PCCP 2, 2105 (2000)

       Gaussian exponent of the core charge distribution:               4.109048
       Electronic configuration (s p d ...):                           4   2   0

  2. Atomic kind: H                                     Number of atoms:       8

     Orbital Basis Set                                         aug-SZV-MOLOPT-ae

       Number of orbital shell sets:                                           1
       Number of orbital shells:                                               4
       Number of primitive Cartesian functions:                                7
       Number of Cartesian basis functions:                                    6
       Number of spherical basis functions:                                    6
       Norm type:                                                              2

       Normalised Cartesian orbitals:

                        Set   Shell   Orbital            Exponent    Coefficient

                          1       1    1s                0.065428       0.000000
                                                         0.100112       0.016532
                                                         0.243077       0.102760
                                                         0.625955       0.185857
                                                         1.822143       0.188385
                                                         6.513144       0.143430
                                                        35.523221       0.095030

                          1       2    2s                0.065428       0.083549
                                                         0.100112       0.009605
                                                         0.243077       0.002524
                                                         0.625955       0.013457
                                                         1.822143       0.000000
                                                         6.513144       0.000000
                                                        35.523221       0.000000

                          1       3    3s                0.065428       0.037407
                                                         0.100112      -0.169070
                                                         0.243077      -0.018899
                                                         0.625955       0.012806
                                                         1.822143       0.000000
                                                         6.513144       0.000000
                                                        35.523221       0.000000

                          1       4    2px               0.065428       0.059908
                                                         0.100112      -0.023770
                                                         0.243077       0.000032
                                                         0.625955       0.017779
                                                         1.822143       0.000000
                                                         6.513144       0.000000
                                                        35.523221       0.000000
                          1       4    2py               0.065428       0.059908
                                                         0.100112      -0.023770
                                                         0.243077       0.000032
                                                         0.625955       0.017779
                                                         1.822143       0.000000
                                                         6.513144       0.000000
                                                        35.523221       0.000000
                          1       4    2pz               0.065428       0.059908
                                                         0.100112      -0.023770
                                                         0.243077       0.000032
                                                         0.625955       0.017779
                                                         1.822143       0.000000
                                                         6.513144       0.000000
                                                        35.523221       0.000000

     RI Auxiliary Basis Set             RI_aug-SZV-MOLOPT-ae_N_RI_007_s_p_d_f_g_

       Number of orbital shell sets:                                           5
       Number of orbital shells:                                               5
       Number of primitive Cartesian functions:                                5
       Number of Cartesian basis functions:                                    7
       Number of spherical basis functions:                                    7
       Norm type:                                                              2

       Normalised Cartesian orbitals:

                        Set   Shell   Orbital            Exponent    Coefficient

                          1       1    1s                0.148777       0.170731

                          2       1    5px               0.367452       0.407794
                          2       1    5py               0.367452       0.407794
                          2       1    5pz               0.367452       0.407794

                          3       1    2s                0.510503       0.430437

                          4       1    3s                1.106366       0.768837

                          5       1    4s                5.955292       2.716986

       Atomic covalent radius [Angstrom]:                                  0.320

       Atomic van der Waals radius [Angstrom]:                             1.090

     The atoms of this atomic kind are PAW atoms (GAPW):
       Hard Gaussian function radius:                                      1.200
       Rho0 radius:                                                        1.200
       Maximum GTO radius used for PAW projector construction:            24.566

     GAPW Soft Basis Set                                  aug-SZV-MOLOPT-ae_soft

       Number of orbital shell sets:                                           1
       Number of orbital shells:                                               4
       Number of primitive Cartesian functions:                                6
       Number of Cartesian basis functions:                                    6
       Number of spherical basis functions:                                    6
       Norm type:                                                              2

       Normalised Cartesian orbitals:

                        Set   Shell   Orbital            Exponent    Coefficient

                          1       1    1s                0.065428       0.000000
                                                         0.100112       0.016532
                                                         0.243077       0.102760
                                                         0.625955       0.185857
                                                         1.822143       0.188385
                                                         6.513144       0.000000

                          1       2    2s                0.065428       0.083549
                                                         0.100112       0.009605
                                                         0.243077       0.002524
                                                         0.625955       0.013457
                                                         1.822143       0.000000
                                                         6.513144       0.000000

                          1       3    3s                0.065428       0.037407
                                                         0.100112      -0.169070
                                                         0.243077      -0.018899
                                                         0.625955       0.012806
                                                         1.822143       0.000000
                                                         6.513144       0.000000

                          1       4    2px               0.065428       0.059908
                                                         0.100112      -0.023770
                                                         0.243077       0.000032
                                                         0.625955       0.017779
                                                         1.822143       0.000000
                                                         6.513144       0.000000
                          1       4    2py               0.065428       0.059908
                                                         0.100112      -0.023770
                                                         0.243077       0.000032
                                                         0.625955       0.017779
                                                         1.822143       0.000000
                                                         6.513144       0.000000
                          1       4    2pz               0.065428       0.059908
                                                         0.100112      -0.023770
                                                         0.243077       0.000032
                                                         0.625955       0.017779
                                                         1.822143       0.000000
                                                         6.513144       0.000000

     AE Potential information for                                            ALL

       Description:                                       All-electron potential
                                          Krack, Parrinello, PCCP 2, 2105 (2000)

       Gaussian exponent of the core charge distribution:              12.500000
       Electronic configuration (s p d ...):                           1   0   0

  3. Atomic kind: N                                     Number of atoms:       2

     Orbital Basis Set                                         aug-SZV-MOLOPT-ae

       Number of orbital shell sets:                                           2
       Number of orbital shells:                                               6
       Number of primitive Cartesian functions:                               13
       Number of Cartesian basis functions:                                   15
       Number of spherical basis functions:                                   14
       Norm type:                                                              2

       Normalised Cartesian orbitals:

                        Set   Shell   Orbital            Exponent    Coefficient

                          1       1    1s                0.090000       0.000000
                                                         0.184684       0.048330
                                                         0.402911       0.214496
                                                         0.927724       0.168591
                                                         2.411326      -0.046594
                                                         7.758467      -0.155691
                                                        39.198808      -0.147969

                          1       2    2s                0.090000      -0.118940
                                                         0.184684       0.080942
                                                         0.402911      -0.164238
                                                         0.927724      -0.024406
                                                         2.411326       0.000000
                                                         7.758467       0.000000
                                                        39.198808       0.000000

                          1       3    2px               0.090000       0.000000
                                                         0.184684       0.017552
                                                         0.402911       0.194858
                                                         0.927724       0.542535
                                                         2.411326       0.744820
                                                         7.758467       0.695446
                                                        39.198808       0.525635
                          1       3    2py               0.090000       0.000000
                                                         0.184684       0.017552
                                                         0.402911       0.194858
                                                         0.927724       0.542535
                                                         2.411326       0.744820
                                                         7.758467       0.695446
                                                        39.198808       0.525635
                          1       3    2pz               0.090000       0.000000
                                                         0.184684       0.017552
                                                         0.402911       0.194858
                                                         0.927724       0.542535
                                                         2.411326       0.744820
                                                         7.758467       0.695446
                                                        39.198808       0.525635

                          1       4    3px               0.090000      -0.032237
                                                         0.184684      -0.080882
                                                         0.402911       0.112185
                                                         0.927724       1.067728
                                                         2.411326       0.000000
                                                         7.758467       0.000000
                                                        39.198808       0.000000
                          1       4    3py               0.090000      -0.032237
                                                         0.184684      -0.080882
                                                         0.402911       0.112185
                                                         0.927724       1.067728
                                                         2.411326       0.000000
                                                         7.758467       0.000000
                                                        39.198808       0.000000
                          1       4    3pz               0.090000      -0.032237
                                                         0.184684      -0.080882
                                                         0.402911       0.112185
                                                         0.927724       1.067728
                                                         2.411326       0.000000
                                                         7.758467       0.000000
                                                        39.198808       0.000000

                          1       5    3dx2              0.090000      -0.010633
                                                         0.184684      -0.050923
                                                         0.402911       0.103346
                                                         0.927724      -0.777682
                                                         2.411326       0.000000
                                                         7.758467       0.000000
                                                        39.198808       0.000000
                          1       5    3dxy              0.090000      -0.018417
                                                         0.184684      -0.088201
                                                         0.402911       0.179000
                                                         0.927724      -1.346985
                                                         2.411326       0.000000
                                                         7.758467       0.000000
                                                        39.198808       0.000000
                          1       5    3dxz              0.090000      -0.018417
                                                         0.184684      -0.088201
                                                         0.402911       0.179000
                                                         0.927724      -1.346985
                                                         2.411326       0.000000
                                                         7.758467       0.000000
                                                        39.198808       0.000000
                          1       5    3dy2              0.090000      -0.010633
                                                         0.184684      -0.050923
                                                         0.402911       0.103346
                                                         0.927724      -0.777682
                                                         2.411326       0.000000
                                                         7.758467       0.000000
                                                        39.198808       0.000000
                          1       5    3dyz              0.090000      -0.018417
                                                         0.184684      -0.088201
                                                         0.402911       0.179000
                                                         0.927724      -1.346985
                                                         2.411326       0.000000
                                                         7.758467       0.000000
                                                        39.198808       0.000000
                          1       5    3dz2              0.090000      -0.010633
                                                         0.184684      -0.050923
                                                         0.402911       0.103346
                                                         0.927724      -0.777682
                                                         2.411326       0.000000
                                                         7.758467       0.000000
                                                        39.198808       0.000000

                          2       1    1s             1027.828458       1.185541
                                                       188.451223       1.789359
                                                        52.721861       2.350183
                                                        18.111382       2.318652
                                                         7.033180       1.281976
                                                         2.896652       0.206248

     RI Auxiliary Basis Set             RI_aug-SZV-MOLOPT-ae_N_RI_043_s_p_d_f_g_

       Number of orbital shell sets:                                          15
       Number of orbital shells:                                              15
       Number of primitive Cartesian functions:                               15
       Number of Cartesian basis functions:                                   49
       Number of spherical basis functions:                                   43
       Norm type:                                                              2

       Normalised Cartesian orbitals:

                        Set   Shell   Orbital            Exponent    Coefficient

                          1       1    1s                0.348881       0.323533

                          2       1   12dx2              0.415899       0.354517
                          2       1   12dxy              0.415899       0.614042
                          2       1   12dxz              0.415899       0.614042
                          2       1   12dy2              0.415899       0.354517
                          2       1   12dyz              0.415899       0.614042
                          2       1   12dz2              0.415899       0.354517

                          3       1    7px               0.565430       0.698898
                          3       1    7py               0.565430       0.698898
                          3       1    7pz               0.565430       0.698898

                          4       1    2s                0.604256       0.488456

                          5       1    8px               0.736384       0.972345
                          5       1    8py               0.736384       0.972345
                          5       1    8pz               0.736384       0.972345

                          6       1   15fx3              1.197807       2.209658
                          6       1   15fx2y             1.197807       4.940945
                          6       1   15fx2z             1.197807       4.940945
                          6       1   15fxy2             1.197807       4.940945
                          6       1   15fxyz             1.197807       8.557969
                          6       1   15fxz2             1.197807       4.940945
                          6       1   15fy3              1.197807       2.209658
                          6       1   15fy2z             1.197807       4.940945
                          6       1   15fyz2             1.197807       4.940945
                          6       1   15fz3              1.197807       2.209658

                          7       1   13dx2              1.339145       2.743833
                          7       1   13dxy              1.339145       4.752458
                          7       1   13dxz              1.339145       4.752458
                          7       1   13dy2              1.339145       2.743833
                          7       1   13dyz              1.339145       4.752458
                          7       1   13dz2              1.339145       2.743833

                          8       1    3s                2.115726       1.250273

                          9       1    9px               3.057998       5.764167
                          9       1    9py               3.057998       5.764167
                          9       1    9pz               3.057998       5.764167

                         10       1   14dx2              5.406341      31.549351
                         10       1   14dxy              5.406341      54.645078
                         10       1   14dxz              5.406341      54.645078
                         10       1   14dy2              5.406341      31.549351
                         10       1   14dyz              5.406341      54.645078
                         10       1   14dz2              5.406341      31.549351

                         11       1    4s                8.101925       3.422562

                         12       1   10px               9.242623      22.971223
                         12       1   10py               9.242623      22.971223
                         12       1   10pz               9.242623      22.971223

                         13       1   11px              24.533825      77.829934
                         13       1   11py              24.533825      77.829934
                         13       1   11pz              24.533825      77.829934

                         14       1    5s               30.207474       9.183239

                         15       1    6s              110.078037      24.220639

       Atomic covalent radius [Angstrom]:                                  0.750

       Atomic van der Waals radius [Angstrom]:                             1.550

     The atoms of this atomic kind are PAW atoms (GAPW):
       Hard Gaussian function radius:                                      1.512
       Rho0 radius:                                                        1.512
       Maximum GTO radius used for PAW projector construction:            24.566

     GAPW Soft Basis Set                                  aug-SZV-MOLOPT-ae_soft

       Number of orbital shell sets:                                           2
       Number of orbital shells:                                               6
       Number of primitive Cartesian functions:                                6
       Number of Cartesian basis functions:                                   15
       Number of spherical basis functions:                                   14
       Norm type:                                                              2

       Normalised Cartesian orbitals:

                        Set   Shell   Orbital            Exponent    Coefficient

                          1       1    1s                0.090000       0.000000
                                                         0.184684       0.048330
                                                         0.402911       0.214496
                                                         0.927724       0.168591
                                                         2.411326      -0.046594

                          1       2    2s                0.090000      -0.118940
                                                         0.184684       0.080942
                                                         0.402911      -0.164238
                                                         0.927724      -0.024406
                                                         2.411326       0.000000

                          1       3    2px               0.090000       0.000000
                                                         0.184684       0.017552
                                                         0.402911       0.194858
                                                         0.927724       0.542535
                                                         2.411326       0.744820
                          1       3    2py               0.090000       0.000000
                                                         0.184684       0.017552
                                                         0.402911       0.194858
                                                         0.927724       0.542535
                                                         2.411326       0.744820
                          1       3    2pz               0.090000       0.000000
                                                         0.184684       0.017552
                                                         0.402911       0.194858
                                                         0.927724       0.542535
                                                         2.411326       0.744820

                          1       4    3px               0.090000      -0.032237
                                                         0.184684      -0.080882
                                                         0.402911       0.112185
                                                         0.927724       1.067728
                                                         2.411326       0.000000
                          1       4    3py               0.090000      -0.032237
                                                         0.184684      -0.080882
                                                         0.402911       0.112185
                                                         0.927724       1.067728
                                                         2.411326       0.000000
                          1       4    3pz               0.090000      -0.032237
                                                         0.184684      -0.080882
                                                         0.402911       0.112185
                                                         0.927724       1.067728
                                                         2.411326       0.000000

                          1       5    3dx2              0.090000      -0.010633
                                                         0.184684      -0.050923
                                                         0.402911       0.103346
                                                         0.927724      -0.777682
                                                         2.411326       0.000000
                          1       5    3dxy              0.090000      -0.018417
                                                         0.184684      -0.088201
                                                         0.402911       0.179000
                                                         0.927724      -1.346985
                                                         2.411326       0.000000
                          1       5    3dxz              0.090000      -0.018417
                                                         0.184684      -0.088201
                                                         0.402911       0.179000
                                                         0.927724      -1.346985
                                                         2.411326       0.000000
                          1       5    3dy2              0.090000      -0.010633
                                                         0.184684      -0.050923
                                                         0.402911       0.103346
                                                         0.927724      -0.777682
                                                         2.411326       0.000000
                          1       5    3dyz              0.090000      -0.018417
                                                         0.184684      -0.088201
                                                         0.402911       0.179000
                                                         0.927724      -1.346985
                                                         2.411326       0.000000
                          1       5    3dz2              0.090000      -0.010633
                                                         0.184684      -0.050923
                                                         0.402911       0.103346
                                                         0.927724      -0.777682
                                                         2.411326       0.000000

                          2       1    1s                2.896652       0.206248

     AE Potential information for                                            ALL

       Description:                                       All-electron potential
                                          Krack, Parrinello, PCCP 2, 2105 (2000)

       Gaussian exponent of the core charge distribution:               5.979100
       Electronic configuration (s p d ...):                           4   3   0

  4. Atomic kind: S                                     Number of atoms:       1

     Orbital Basis Set                                         aug-SZV-MOLOPT-ae

       Number of orbital shell sets:                                           3
       Number of orbital shells:                                               8
       Number of primitive Cartesian functions:                               19
       Number of Cartesian basis functions:                                   19
       Number of spherical basis functions:                                   18
       Norm type:                                                              2

       Normalised Cartesian orbitals:

                        Set   Shell   Orbital            Exponent    Coefficient

                          1       1    1s                0.072000       0.000000
                                                         0.148404       0.047043
                                                         0.287959       0.206056
                                                         0.581913       0.071732
                                                         1.300021      -0.154888
                                                         3.466625      -0.128563
                                                        12.944394      -0.038633

                          1       2    2s                0.072000       0.024465
                                                         0.148404       0.270123
                                                         0.287959      -0.286184
                                                         0.581913       0.001423
                                                         1.300021       0.046778
                                                         3.466625       0.000000
                                                        12.944394       0.000000

                          1       3    2px               0.072000       0.000000
                                                         0.148404       0.013902
                                                         0.287959       0.147021
                                                         0.581913       0.300295
                                                         1.300021       0.150808
                                                         3.466625      -0.123340
                                                        12.944394      -0.249863
                          1       3    2py               0.072000       0.000000
                                                         0.148404       0.013902
                                                         0.287959       0.147021
                                                         0.581913       0.300295
                                                         1.300021       0.150808
                                                         3.466625      -0.123340
                                                        12.944394      -0.249863
                          1       3    2pz               0.072000       0.000000
                                                         0.148404       0.013902
                                                         0.287959       0.147021
                                                         0.581913       0.300295
                                                         1.300021       0.150808
                                                         3.466625      -0.123340
                                                        12.944394      -0.249863

                          1       4    3px               0.072000      -0.066040
                                                         0.148404       0.050064
                                                         0.287959      -0.069730
                                                         0.581913       0.158592
                                                         1.300021      -0.055990
                                                         3.466625       0.000000
                                                        12.944394       0.000000
                          1       4    3py               0.072000      -0.066040
                                                         0.148404       0.050064
                                                         0.287959      -0.069730
                                                         0.581913       0.158592
                                                         1.300021      -0.055990
                                                         3.466625       0.000000
                                                        12.944394       0.000000
                          1       4    3pz               0.072000      -0.066040
                                                         0.148404       0.050064
                                                         0.287959      -0.069730
                                                         0.581913       0.158592
                                                         1.300021      -0.055990
                                                         3.466625       0.000000
                                                        12.944394       0.000000

                          1       5    3dx2              0.072000       0.001679
                                                         0.148404       0.023049
                                                         0.287959       0.065695
                                                         0.581913       0.132541
                                                         1.300021       0.392654
                                                         3.466625       0.000000
                                                        12.944394       0.000000
                          1       5    3dxy              0.072000       0.002907
                                                         0.148404       0.039921
                                                         0.287959       0.113787
                                                         0.581913       0.229567
                                                         1.300021       0.680096
                                                         3.466625       0.000000
                                                        12.944394       0.000000
                          1       5    3dxz              0.072000       0.002907
                                                         0.148404       0.039921
                                                         0.287959       0.113787
                                                         0.581913       0.229567
                                                         1.300021       0.680096
                                                         3.466625       0.000000
                                                        12.944394       0.000000
                          1       5    3dy2              0.072000       0.001679
                                                         0.148404       0.023049
                                                         0.287959       0.065695
                                                         0.581913       0.132541
                                                         1.300021       0.392654
                                                         3.466625       0.000000
                                                        12.944394       0.000000
                          1       5    3dyz              0.072000       0.002907
                                                         0.148404       0.039921
                                                         0.287959       0.113787
                                                         0.581913       0.229567
                                                         1.300021       0.680096
                                                         3.466625       0.000000
                                                        12.944394       0.000000
                          1       5    3dz2              0.072000       0.001679
                                                         0.148404       0.023049
                                                         0.287959       0.065695
                                                         0.581913       0.132541
                                                         1.300021       0.392654
                                                         3.466625       0.000000
                                                        12.944394       0.000000

                          2       1    1s              345.589679      -0.757073
                                                        68.401217      -0.796580
                                                        21.259047      -0.238395
                                                         8.179122       0.862581
                                                         3.552198       1.097452
                                                         1.628232       0.247277

                          2       2    2px             345.589679       7.985348
                                                        68.401217      10.565097
                                                        21.259047      11.315175
                                                         8.179122       8.242094
                                                         3.552198       2.960247
                                                         1.628232       0.266650
                          2       2    2py             345.589679       7.985348
                                                        68.401217      10.565097
                                                        21.259047      11.315175
                                                         8.179122       8.242094
                                                         3.552198       2.960247
                                                         1.628232       0.266650
                          2       2    2pz             345.589679       7.985348
                                                        68.401217      10.565097
                                                        21.259047      11.315175
                                                         8.179122       8.242094
                                                         3.552198       2.960247
                                                         1.628232       0.266650

                          3       1    1s             5529.038289       4.187581
                                                      1013.743118       6.320396
                                                       283.608793       8.301345
[...]
 mp_sum_d                          4637  6.8    2.853    3.063    2.853    3.063
 integrate_four_center_main          91 10.0    0.027    0.052    2.793    2.944
 integrate_four_center_bin         8688 11.0    2.766    2.924    2.766    2.924
 mp_alltoall_d11v                  1696  9.5    1.809    2.897    1.809    2.897
 integrate_vhg0_rspace               91  8.0    0.079    0.105    2.545    2.555
 cp_fm_diag_elpa                     96  7.0    0.000    0.000    2.444    2.451
 start_bse_calculation                1  7.0    0.000    0.000    2.438    2.438
 cp_fm_diag_elpa_base                96  8.0    2.401    2.422    2.435    2.435
 mp_sync                            911  9.6    1.520    2.406    1.520    2.406
 powell_optimize                1529008 11.0    2.195    2.240    2.195    2.240
 xc_functional_eval                 450 10.7    0.001    0.002    1.410    2.181
 pbe_lda_eval                       450 11.7    1.409    2.180    1.409    2.180
 calculate_vxc_atom                  91  8.0    0.057    0.164    2.086    2.086
 calc_screening_functions             1 10.0    0.780    0.800    1.993    2.026
 mp_waitall_1                     43114 12.0    1.261    1.939    1.261    1.939
 gaVxcgb_GC                         180  9.0    0.101    1.858    0.101    1.858
 compute_GW_self_energy             100  7.0    0.001    0.002    1.722    1.748
 parallel_gemm_fm                   400  8.3    0.000    0.000    1.588    1.617
 parallel_gemm_fm_cosma             400  9.3    1.588    1.616    1.588    1.616
 compute_GW_self_energy_deep        100  8.0    0.757    0.772    1.541    1.567
 transfer_pw2rs_30                   91 12.0    0.824    0.839    1.423    1.560
 calc_pair_dist_radii                 1 10.0    0.505    0.512    1.487    1.509
 calculate_rho_atom                 455  9.0    0.639    1.450    0.639    1.450
 qs_scf_new_mos                      90  5.0    0.001    0.001    1.216    1.313
 pw_scatter_p                       995 12.1    1.248    1.291    1.248    1.291
 create_hermitian_form_of_ABBA        1  8.0    0.000    0.000    1.238    1.244
 transfer_pw2rs_90                   91 12.0    0.180    0.212    1.075    1.237
 cp_fm_power                          2  7.5    0.022    0.023    1.076    1.083
 transfer_rs2pw_90                   91  9.0    0.204    0.233    0.924    1.074
 pw_derive                          813 11.3    1.038    1.055    1.038    1.055
 diagonalize_C                        1  8.0    0.000    0.000    1.046    1.047
 mp_sum_dm                         5009  7.7    0.910    1.012    0.910    1.012
 transfer_rs2pw_30                   91  9.0    0.360    0.380    0.924    0.969
 pw_copy                           1360 10.6    0.910    0.940    0.910    0.940
 mp_sum_dv                        10283 10.3    0.887    0.939    0.887    0.939
 pw_gather_p                        907 11.8    0.908    0.934    0.908    0.934
 cp2k_distribution_to_z_slices       91  9.0    0.332    0.361    0.810    0.839
 mp_sendrecv_dv                   14378 10.0    0.754    0.806    0.754    0.806
 eigensolver_symm                    91  6.0    0.006    0.007    0.797    0.799
 mp2_ri_gpw_compute_in                1  5.0    0.000    0.000    0.682    0.682
 rs_grid_zero                       457 11.2    0.647    0.662    0.647    0.662
 pw_copy_to_array                   907 11.8    0.520    0.648    0.520    0.648
 rs_gather_matrices                  91 10.0    0.002    0.004    0.521    0.639
 mp_isend_dv                      15589 11.8    0.233    0.620    0.233    0.620
 pw_poisson_set                      92  8.9    0.001    0.001    0.596    0.606
 grid_integrate_task_list            91 10.0    0.113    0.585    0.113    0.585
 fft_wrap_pw1pw2_90                 182 10.5    0.027    0.028    0.572    0.584
 compute_vec_Sigma_x_minus_vxc_       1  4.0    0.000    0.000    0.563    0.563
 pw_copy_from_array                 995 12.1    0.451    0.553    0.451    0.553
 mp2_ri_gpw_compute_in_loop           1  6.0    0.000    0.000    0.542    0.542
 pw_integral_ab_c1d_c1d_gs           91  9.0    0.395    0.398    0.469    0.490
 rpa_num_int_RPA_matrix_operati     100  7.0    0.000    0.001    0.464    0.464
 contract_B_L                         4  7.0    0.001    0.002    0.356    0.458
 mp_isend_dm3                      3288 11.5    0.064    0.452    0.064    0.452
 pw_poisson_rebuild                  91  9.0    0.000    0.000    0.420    0.439
 ps_wavelet_create                    1 10.0    0.000    0.000    0.420    0.439
 RS_z_slice_distribution              1 11.0    0.254    0.378    0.420    0.439
 pw_axpy                            905  9.3    0.389    0.402    0.389    0.402
 mp2_eri_3c_integrate                 1  7.0    0.001    0.002    0.155    0.377
 integrate_set_3c                  2508  8.0    0.139    0.344    0.154    0.375
 mp_cart_create                     729  9.7    0.262    0.366    0.263    0.366
 calculate_dm_sparse                 90  6.0    0.000    0.001    0.270    0.357
 cp_dbcsr_plus_fm_fm_t               90  7.0    0.001    0.001    0.270    0.356
 dbt_pgrid_create_expert             84 10.8    0.000    0.000    0.239    0.342
 calc_mat_Q                         100  8.0    0.000    0.000    0.338    0.341
 contract_S_to_Q                    100  9.0    0.000    0.000    0.336    0.339
 calculate_rho_atom_coeff            91  6.0    0.040    0.049    0.321    0.322
 qs_energies_init_hamiltonians        1  3.0    0.000    0.000    0.306    0.306
 build_core_hamiltonian_matrix        1  4.0    0.000    0.000    0.303    0.304
 overlap_condnum                      1  5.0    0.000    0.000    0.301    0.302
 transfer_rs2pw_10                   91  9.0    0.089    0.093    0.280    0.295
 transfer_pw2rs_10                   91 12.0    0.144    0.151    0.288    0.295
 dbcsr_multiply_generic             151  8.1    0.004    0.004    0.199    0.284
 arnoldi_conjugate_gradient           5  6.0    0.006    0.008    0.283    0.283
 pw_zero                            542 10.3    0.233    0.248    0.233    0.248
 Vh_1c_gg_integrals                  91  8.0    0.016    0.172    0.234    0.244
 mp2_main_alloc_hfx                   1  4.0    0.128    0.226    0.128    0.226
 init_scf_run                         1  3.0    0.000    0.000    0.223    0.223
 scf_env_initial_rho_setup            1  4.0    0.000    0.000    0.213    0.213
 dbcsr_complete_redistribute        313  8.4    0.010    0.013    0.186    0.192
 copy_dbcsr_to_fm                   129  6.6    0.002    0.002    0.175    0.191
 cp_fm_cholesky_decompose           102  9.0    0.156    0.191    0.156    0.191
 multiply_cannon                    151  9.1    0.007    0.007    0.102    0.189
 qs_init_subsys                       1  2.0    0.002    0.002    0.185    0.186
 qs_env_setup                         1  3.0    0.000    0.000    0.180    0.181
 qs_env_rebuild_pw_env                2  3.5    0.000    0.000    0.180    0.181
 pw_env_rebuild                       1  5.0    0.000    0.000    0.180    0.180
 create_qs_kind_set                   1  2.0    0.000    0.000    0.177    0.178
 read_qs_kind                         5  3.0    0.070    0.113    0.177    0.178
 write_mo_set_to_restart             90  5.0    0.002    0.135    0.126    0.175
 mp_sum_i                            19  9.5    0.099    0.175    0.099    0.175
 restraint_control                    1  2.0    0.000    0.000    0.099    0.175
 multiply_cannon_loop               151 10.1    0.006    0.007    0.085    0.171
 dbcsr_sym_matrix_vector_mult      1935  7.0    0.014    0.015    0.162    0.170
 cp_fm_cholesky_invert              101  8.0    0.165    0.170    0.165    0.170
 mp_max_i                           645  3.1    0.147    0.169    0.147    0.169
 fft_wrap_pw1pw2_30                 182 10.5    0.005    0.005    0.151    0.155
 pw_grid_setup                        4  6.0    0.000    0.000    0.151    0.152
 pw_grid_setup_internal               4  7.0    0.002    0.003    0.151    0.152
 integrate_four_center_load          91 10.0    0.000    0.000    0.077    0.151
 hfx_load_balance                     1 11.0    0.000    0.000    0.077    0.151
 update_ks_atom                      91  8.0    0.032    0.052    0.131    0.150
 multiply_cannon_metrocomm3        1956 11.1    0.003    0.003    0.048    0.142
 self_consistency_check              90  5.0    0.000    0.000    0.088    0.140
 cp_sm_mix                           90  6.0    0.000    0.000    0.088    0.139
 mp_max_d                            92  6.9    0.088    0.139    0.088    0.139
 get_2c_integrals                     1  6.0    0.000    0.000    0.082    0.138
 mp_sum_l                          1107  6.5    0.068    0.136    0.068    0.136
 write_mo_set_low                     5  6.0    0.000    0.000    0.123    0.125
 cp_fm_write_unformatted              5  7.0    0.123    0.125    0.123    0.125
 calculate_rho0_atom                455  9.0    0.119    0.120    0.119    0.120
 compute_Erpa_by_freq_int           100  8.0    0.001    0.003    0.119    0.119
 hfx_load_balance_range               1 12.0    0.000    0.000    0.041    0.115
 pw_grid_sort                         4  8.0    0.080    0.081    0.108    0.111
 dbt_total                            8  8.0    0.000    0.000    0.109    0.109
 parser_read_line                 31533  4.0    0.005    0.005    0.107    0.109
 copy_fm_to_dbcsr                   184  8.0    0.000    0.000    0.102    0.107
 parser_read_line_low                46  5.0    0.002    0.024    0.103    0.104
 mp_bcast_dm                       3276  9.0    0.099    0.104    0.099    0.104
 dbcsr_add_d                       2978  7.1    0.001    0.001    0.019    0.103
 broadcast_input_information         46  6.0    0.007    0.008    0.101    0.102
 dbcsr_add_anytype                 2978  8.1    0.002    0.013    0.018    0.102
 dbcsr_desymmetrize_deep            131  7.5    0.003    0.003    0.085    0.101
 dbt_contract                         4  9.0    0.000    0.000    0.096    0.099
 mp_irecv_dv                      15537 11.8    0.014    0.092    0.014    0.092
 cp_fm_to_fm_submat_general         112 10.1    0.086    0.092    0.086    0.092
 scale_and_distribute               182 10.0    0.072    0.090    0.072    0.090
 mp_bcast_i_src                     184  7.0    0.074    0.081    0.074    0.081
 fft_wrap_pw1pw2_10                 182 10.5    0.001    0.002    0.075    0.077
 mp_alltoall_i11v                  1070  9.3    0.077    0.077    0.077    0.077
 fm_general_add_bse                   5 10.2    0.000    0.000    0.073    0.077
 mp_isendrecv_dv                  28756 12.0    0.042    0.077    0.042    0.077
 cholesky_decomp                      1  7.0    0.000    0.000    0.042    0.076
 pw_scale                           361  9.5    0.048    0.075    0.048    0.075
 dbt_tas_multiply                     8 11.5    0.000    0.000    0.073    0.073
 dbt_tas_total                        8 12.5    0.001    0.005    0.073    0.073
 cp_fm_uplo_to_full                 200  8.5    0.053    0.071    0.053    0.071
 make_m2s                           302  9.1    0.003    0.003    0.069    0.071
 dbcsr_finalize                    5224 10.8    0.007    0.020    0.028    0.070
 cp_fm_syrk                           3  7.0    0.067    0.070    0.067    0.070
 create_A                             1  8.0    0.003    0.005    0.067    0.070
 scf_post_calculation_gpw             1  3.0    0.000    0.000    0.067    0.067
 write_available_results              1  4.0    0.000    0.000    0.066    0.067
 write_mo_free_results                1  5.0    0.004    0.005    0.066    0.067
 mp_alltoall_i22                    444  9.2    0.048    0.065    0.048    0.065
 dbcsr_col_vec_to_rep_row          1935  8.0    0.006    0.007    0.057    0.065
 create_B                             1  8.0    0.000    0.000    0.062    0.063
 mp_rank_compare                   1902 12.9    0.054    0.058    0.054    0.058
 cp_fm_symm                          91  7.0    0.047    0.054    0.047    0.054
 compute_2c_integrals                 1  7.0    0.000    0.000    0.007    0.053
 dbcsr_rep_row_to_rep_col_vec      1935  8.0    0.005    0.006    0.033    0.053
 vxc_of_r_new                       360  9.0    0.001    0.008    0.006    0.052
 multiply_cannon_metrocomm1        1956 11.1    0.001    0.001    0.009    0.052
 postprocess_bse                      1  9.0    0.000    0.000    0.050    0.051
 rs_scatter_matrices                 91  7.0    0.001    0.001    0.048    0.049
 integrate_four_center_dist_KS       91 10.0    0.007    0.008    0.046    0.047
 mp_bcast_dv                       1935  9.0    0.037    0.044    0.037    0.044
 mp_irecv_dm3                      3288 11.5    0.008    0.043    0.008    0.043
 hfx_create                           1  2.0    0.014    0.042    0.015    0.042
 integrate_four_center_getP          91 10.0    0.007    0.008    0.039    0.040
 dbcsr_iterator_start             26284  8.9    0.021    0.031    0.025    0.040
 make_images                        302 10.1    0.007    0.007    0.033    0.035
 create_integ_mat                     4  6.0    0.001    0.001    0.033    0.034
 grep_Lcols                           1  7.0    0.000    0.000    0.019    0.033
 grep_Lcols_comm                      1  8.0    0.000    0.000    0.019    0.033
 array2fm                             4  7.0    0.000    0.000    0.030    0.033
 mp_sendrecv_dm2                     93  7.2    0.016    0.033    0.016    0.033
 multiply_cannon_metrocomm4        1805 11.1    0.003    0.003    0.007    0.033
 sort_shells                          4  9.0    0.028    0.032    0.028    0.032
 abc_contract                      2508  9.0    0.015    0.031    0.015    0.031
 mp2_main_free_hfx                    1  4.0    0.014    0.031    0.014    0.031
 hybrid_alltoall_any                433 11.0    0.003    0.004    0.030    0.031
 mp_comm_split_direct                48 14.5    0.023    0.031    0.023    0.031
 dbcsr_merge_all                   3983 11.6    0.010    0.024    0.014    0.031
 hfx_load_balance_redist              1 12.0    0.003    0.003    0.031    0.031
 dbt_tas_estimate_result_nze          4 12.0    0.000    0.003    0.027    0.029
 xc_pw_smooth                        90 10.0    0.000    0.000    0.026    0.029
 invert_mat                           1  7.0    0.000    0.000    0.013    0.028
 cp_fm_triangular_invert              1  8.0    0.013    0.028    0.013    0.028
 dbt_tas_dbm                          8 13.5    0.000    0.000    0.028    0.028
 mp_sendrecv_im2                     86  7.2    0.003    0.028    0.003    0.028
 mp_isendrecv_lv                    158 13.0    0.001    0.027    0.001    0.027
 mixing_init                          1  5.0    0.026    0.027    0.027    0.027
 dbcsr_copy                        8707  7.7    0.015    0.016    0.025    0.027
 compute_max_radius                   1  6.0    0.025    0.026    0.025    0.026
 dbt_tas_mm_1N                        8 14.5    0.000    0.000    0.023    0.026
 dbm_multiply                         8 15.5    0.023    0.026    0.023    0.026
 dbcsr_work_create                 4796 10.6    0.006    0.017    0.009    0.025
 fm_general_add_bse_1_setup           5 11.2    0.023    0.025    0.023    0.025
 get_multipoles_mo                    1 10.0    0.000    0.000    0.023    0.024
 offload_free_buffer                 99  8.5    0.017    0.024    0.017    0.024
 dbcsr_crop_matrix                  540 10.0    0.002    0.002    0.022    0.024
 mulliken_population_analysis         1  6.0    0.000    0.000    0.023    0.023
 dbt_copy                            12 10.0    0.000    0.000    0.020    0.023
 mp_bcast_am_src                     46  7.0    0.018    0.022    0.019    0.022
 dbt_distribution_new_expert         76 10.1    0.000    0.001    0.021    0.022
 mp_maxloc_dv                      1511  1.0    0.018    0.022    0.018    0.022
 hirshfeld_integration                1  6.0    0.001    0.006    0.021    0.021
 mp_bcast_b_src                     187  7.5    0.015    0.021    0.015    0.021
 dbcsr_create_new                 12265  9.2    0.014    0.015    0.019    0.020
 dbcsr_iterator_stop              26284  8.9    0.012    0.016    0.015    0.019
 get_oscillator_strengths             1 10.0    0.000    0.000    0.019    0.019
 array2fm_info                        4  8.0    0.013    0.018    0.013    0.019
 fm_general_add_bse_5_comm_buff       5 11.2    0.000    0.000    0.013    0.019
 communicate_buffer                   5 12.2    0.000    0.000    0.013    0.019
 mp_cart_sub                        262  8.6    0.018    0.018    0.018    0.018
 dbt_tas_distribution_new            94 11.7    0.009    0.010    0.017    0.018
 dbcsr_copy_submatrix               540 11.0    0.002    0.002    0.017    0.018
 calculate_hirshfeld_normalizat       1  6.0    0.001    0.006    0.017    0.018
 dbcsr_work_destroy_all            4796 11.6    0.005    0.013    0.006    0.018
 mult_B_with_W                        1  8.0    0.000    0.000    0.016    0.017
 dbt_reshape                          8 11.5    0.003    0.005    0.013    0.016
 cp_fm_redistribute_start            96  8.0    0.000    0.000    0.008    0.016
 fm_general_add_bse_4_buf_from_       1 10.0    0.014    0.015    0.014    0.015
 fm_general_add_bse_4_buf_from_       1 10.0    0.013    0.015    0.013    0.015
 dbt_remap                            8 10.0    0.001    0.001    0.015    0.015
 make_images_sizes                  302 11.1    0.000    0.000    0.012    0.014
 mp_alltoall_i44                    302 12.1    0.012    0.014    0.012    0.014
 pw_grid_assign                       4  8.0    0.012    0.013    0.014    0.014
 mp_bcast_av                        756  1.0    0.004    0.006    0.010    0.014
 multiply_cannon_multrec           1956 11.1    0.010    0.013    0.011    0.014
 external_control                    91  5.0    0.000    0.010    0.013    0.013
 pw_grid_remap                        4  8.0    0.003    0.003    0.011    0.013
 dbcsr_data_new                   47275 11.1    0.007    0.013    0.007    0.013
 cp_dbcsr_sm_fm_multiply              3 11.0    0.000    0.000    0.013    0.013
 create_fast_col_vec_access        3870  8.0    0.007    0.008    0.011    0.012
 dbt_split_blocks_generic            20  8.8    0.002    0.002    0.012    0.012
 create_fast_row_vec_access        3870  8.0    0.007    0.008    0.011    0.012
 dbt_tas_create_split                44 13.2    0.000    0.000    0.011    0.012
 dbt_tas_create_split_rows_or_c      44 14.2    0.000    0.000    0.011    0.012
 dbt_create_new                      40  9.5    0.000    0.000    0.011    0.011
 array2fm_fill                        4  8.0    0.002    0.002    0.006    0.011
 dbcsr_data_release               77576 10.6    0.007    0.011    0.007    0.011
 dbt_tas_replicate                    8 13.5    0.003    0.004    0.010    0.011
 mp_sum_im3                           4  9.0    0.008    0.011    0.008    0.011
 dbt_communicate_buffer               8 12.5    0.000    0.000    0.009    0.010
 -------------------------------------------------------------------------------

 The number of warnings for this run is : 1
 
 -------------------------------------------------------------------------------
  **** **** ******  **  PROGRAM ENDED AT                 2025-05-05 03:59:07.993
 ***** ** ***  *** **   PROGRAM RAN ON                                  n2cn0206
 **    ****   ******    PROGRAM RAN BY                                  metdyn02
 ***** **    ** ** **   PROGRAM PROCESS ID                               3677565
  **** **  *******  **  PROGRAM STOPPED IN /scratch/hpc-prf-metdyn/metdyn02_Remi
                                           /10_MOL/05_MOL/aUKBqsEOTmq69kFe5R_nOg
                                           /5k_set_final_qzvp/DUQPAH/SZV/GW+BSE/
                                           1e-4
