 DBCSR| CPU Multiplication driver                                           BLAS (U)
 DBCSR| Multrec recursion limit                                              512 (U)
 DBCSR| Multiplication stack size                                           1000 (D)
 DBCSR| Maximum elements for images                                    UNLIMITED (U)
 DBCSR| Multiplicative factor virtual images                                   1 (U)
 DBCSR| Use multiplication densification                                       T (D)
 DBCSR| Multiplication size stacks                                             3 (U)
 DBCSR| Use memory pool for CPU allocation                                     F (U)
 DBCSR| Number of 3D layers                                               SINGLE (U)
 DBCSR| Use MPI memory allocation                                              F (U)
 DBCSR| Use RMA algorithm                                                      F (U)
 DBCSR| Use Communication thread                                               T (U)
 DBCSR| Communication thread load                                             75 (D)
 DBCSR| MPI: My process id                                                     0
 DBCSR| MPI: Number of processes                                             216
 DBCSR| OMP: Current number of threads                                         4
 DBCSR| OMP: Max number of threads                                             4
 DBCSR| Split modifier for TAS multiplication algorithm                  1.0E+00 (U)


  **** **** ******  **  PROGRAM STARTED AT               2025-03-31 01:17:08.320
 ***** ** ***  *** **   PROGRAM STARTED ON                          i07r06c04s09
 **    ****   ******    PROGRAM STARTED BY                               di38fab
 ***** **    ** ** **   PROGRAM PROCESS ID                                564985
  **** **  *******  **  PROGRAM STARTED IN /hppfs/scratch/04/di38fab/07_MOL_non_
                                           aug/05_MOL_non_aug/05_MOL/aUKBqsEOTmq
                                           69kFe5R_nOg/5k_set_final_qzvp/BADKOH/
                                           cc-pVQZ/GW+BSE

 CP2K| version string:                 CP2K version 2025.1 (Development Version)
 CP2K| source code revision number:                                  git:d2e611a
 CP2K| cp2kflags: omp libint fftw3 libxc parallel scalapack max_contr=4         
 CP2K| is freely available from                            https://www.cp2k.org/
 CP2K| Program compiled at                       Thu 06 Mar 2025 05:09:20 PM CET
 CP2K| Program compiled on                                               login02
 CP2K| Program compiled for                                        Supermuc-foss
 CP2K| Data directory path                  /hppfs/work/pn36zo/di38fab/cp2k/data
 CP2K| Input file name                                                    GW.inp

 GLOBAL| Force Environment number                                              1
 GLOBAL| Basis set file name            /hppfs/scratch/04/di38fab/04_TMD/BASIS_A
 GLOBAL| Potential file name            /hppfs/work/pn36zo/di38fab/cp2k/data/ALL
 GLOBAL| MM Potential file name                                     MM_POTENTIAL
 GLOBAL| Coordinate file name                                      __STD_INPUT__
 GLOBAL| Method name                                                        CP2K
 GLOBAL| Project name                                                       MoS2
 GLOBAL| Run type                                                         ENERGY
 GLOBAL| FFT library                                                       FFTW3
 GLOBAL| Diagonalization library                                       ScaLAPACK
 GLOBAL| DGEMM library                                                      BLAS
 GLOBAL| Orthonormality check for eigenvectors                          DISABLED
 GLOBAL| Matrix multiplication library                                 ScaLAPACK
 GLOBAL| All-to-all communication in single precision                          F
 GLOBAL| FFTs using library dependent lengths                                  F
 GLOBAL| Grid backend                                                       AUTO
 GLOBAL| Global print level                                               MEDIUM
 GLOBAL| MPI I/O enabled                                                       T
 GLOBAL| Total number of message passing processes                           216
 GLOBAL| Number of threads for this process                                    4
 GLOBAL| This output is from process                                           0
 GLOBAL| OpenMP stack size per thread (OMP_STACKSIZE)                    default
 GLOBAL| CPU model name             Intel(R) Xeon(R) Platinum 8174 CPU @ 3.10GHz

 MEMORY| system memory details [Kb]
 MEMORY|                        rank 0           min           max       average
 MEMORY| MemTotal             98436664      98436660      98436708      98436667
 MEMORY| MemFree              84150276      83859772      84232968      84098116
 MEMORY| Buffers                     0             0             0             0
 MEMORY| Cached                2466012       2450188       2491076       2467148
 MEMORY| Slab                  1227440       1217916       1238236       1231777
 MEMORY| SReclaimable           275136        268768        283152        277654
 MEMORY| MemLikelyFree        86891424      86600624      86977128      86842919


 *** Fundamental physical constants (SI units) ***

 *** Literature: B. J. Mohr and B. N. Taylor,
 ***             CODATA recommended values of the fundamental physical
 ***             constants: 2006, Web Version 5.1
 ***             http://physics.nist.gov/constants

 Speed of light in vacuum [m/s]                             2.99792458000000E+08
 Magnetic constant or permeability of vacuum [N/A**2]       1.25663706143592E-06
 Electric constant or permittivity of vacuum [F/m]          8.85418781762039E-12
 Planck constant (h) [J*s]                                  6.62606896000000E-34
 Planck constant (h-bar) [J*s]                              1.05457162825177E-34
 Elementary charge [C]                                      1.60217648700000E-19
 Electron mass [kg]                                         9.10938215000000E-31
 Electron g factor [ ]                                     -2.00231930436220E+00
 Proton mass [kg]                                           1.67262163700000E-27
 Fine-structure constant                                    7.29735253760000E-03
 Rydberg constant [1/m]                                     1.09737315685270E+07
 Avogadro constant [1/mol]                                  6.02214179000000E+23
 Boltzmann constant [J/K]                                   1.38065040000000E-23
 Atomic mass unit [kg]                                      1.66053878200000E-27
 Bohr radius [m]                                            5.29177208590000E-11

 *** Conversion factors ***

 [u] -> [a.u.]                                              1.82288848426455E+03
 [Angstrom] -> [Bohr] = [a.u.]                              1.88972613288564E+00
 [a.u.] = [Bohr] -> [Angstrom]                              5.29177208590000E-01
 [a.u.] -> [s]                                              2.41888432650478E-17
 [a.u.] -> [fs]                                             2.41888432650478E-02
 [a.u.] -> [J]                                              4.35974393937059E-18
 [a.u.] -> [N]                                              8.23872205491840E-08
 [a.u.] -> [K]                                              3.15774647902944E+05
 [a.u.] -> [kJ/mol]                                         2.62549961709828E+03
 [a.u.] -> [kcal/mol]                                       6.27509468713739E+02
 [a.u.] -> [Pa]                                             2.94210107994716E+13
 [a.u.] -> [bar]                                            2.94210107994716E+08
 [a.u.] -> [atm]                                            2.90362800883016E+08
 [a.u.] -> [eV]                                             2.72113838565563E+01
 [a.u.] -> [Hz]                                             6.57968392072181E+15
 [a.u.] -> [1/cm] (wave numbers)                            2.19474631370540E+05
 [a.u./Bohr**2] -> [1/cm]                                   5.14048714338585E+03
 

 CELL_TOP| Volume [angstrom^3]:                                     27000.000000
 CELL_TOP| Vector a [angstrom    30.000     0.000     0.000   |a| =    30.000000
 CELL_TOP| Vector b [angstrom     0.000    30.000     0.000   |b| =    30.000000
 CELL_TOP| Vector c [angstrom     0.000     0.000    30.000   |c| =    30.000000
 CELL_TOP| Angle (b,c), alpha [degree]:                                90.000000
 CELL_TOP| Angle (a,c), beta  [degree]:                                90.000000
 CELL_TOP| Angle (a,b), gamma [degree]:                                90.000000
 CELL_TOP| Numerically orthorhombic:                                         YES
 CELL_TOP| Periodicity                                                      NONE

 GENERATE|  Preliminary Number of Bonds generated:                             0
 GENERATE|  Achieved consistency in connectivity generation.

 CELL| Volume [angstrom^3]:                                         27000.000000
 CELL| Vector a [angstrom]:      30.000     0.000     0.000   |a| =    30.000000
 CELL| Vector b [angstrom]:       0.000    30.000     0.000   |b| =    30.000000
 CELL| Vector c [angstrom]:       0.000     0.000    30.000   |c| =    30.000000
 CELL| Angle (b,c), alpha [degree]:                                    90.000000
 CELL| Angle (a,c), beta  [degree]:                                    90.000000
 CELL| Angle (a,b), gamma [degree]:                                    90.000000
 CELL| Numerically orthorhombic:                                             YES
 CELL| Periodicity                                                          NONE

 CELL_REF| Volume [angstrom^3]:                                     27000.000000
 CELL_REF| Vector a [angstrom    30.000     0.000     0.000   |a| =    30.000000
 CELL_REF| Vector b [angstrom     0.000    30.000     0.000   |b| =    30.000000
 CELL_REF| Vector c [angstrom     0.000     0.000    30.000   |c| =    30.000000
 CELL_REF| Angle (b,c), alpha [degree]:                                90.000000
 CELL_REF| Angle (a,c), beta  [degree]:                                90.000000
 CELL_REF| Angle (a,b), gamma [degree]:                                90.000000
 CELL_REF| Numerically orthorhombic:                                         YES
 CELL_REF| Periodicity                                                      NONE

 *******************************************************************************
 *******************************************************************************
 **                                                                           **
 **     #####                         ##              ##                      **
 **    ##   ##            ##          ##              ##                      **
 **   ##     ##                       ##            ######                    **
 **   ##     ##  ##   ##  ##   #####  ##  ##   ####   ##    #####    #####    **
 **   ##     ##  ##   ##  ##  ##      ## ##   ##      ##   ##   ##  ##   ##   **
 **   ##  ## ##  ##   ##  ##  ##      ####     ###    ##   ######   ######    **
 **    ##  ###   ##   ##  ##  ##      ## ##      ##   ##   ##       ##        **
 **     #######   #####   ##   #####  ##  ##  ####    ##    #####   ##        **
 **           ##                                                    ##        **
 **                                                                           **
 **                                                ... make the atoms dance   **
 **                                                                           **
 **            Copyright (C) by CP2K developers group (2000-2025)             **
 **                      J. Chem. Phys. 152, 194103 (2020)                    **
 **                                                                           **
 *******************************************************************************

 DFT| Spin restricted Kohn-Sham (RKS) calculation                            RKS
 DFT| Multiplicity                                                             1
 DFT| Number of spin states                                                    1
 DFT| Charge                                                                   0
 DFT| Self-interaction correction (SIC)                                       NO
 DFT| Cutoffs: density                                              1.000000E-10
 DFT|          gradient                                             1.000000E-10
 DFT|          tau                                                  1.000000E-10
 DFT|          cutoff_smoothing_range                               0.000000E+00
 DFT| XC density smoothing                                                  NONE
 DFT| XC derivatives                                                          PW

 FUNCTIONAL| PBE:
 FUNCTIONAL| J.P.Perdew, K.Burke, M.Ernzerhof, Phys. Rev. Letter, vol. 77, n 18,
 FUNCTIONAL|  pp. 3865-3868, (1996)sx=0.750sc=1.000{spin unpolarized}           


 QS| Method:                                                                GAPW
 QS| Density plane wave grid type                        NON-SPHERICAL FULLSPACE
 QS| Number of grid levels:                                                    4
 QS| Density cutoff [a.u.]:                                                250.0
 QS| Multi grid cutoff [a.u.]: 1) grid level                               250.0
 QS|                           2) grid level                                83.3
 QS|                           3) grid level                                27.8
 QS|                           4) grid level                                 9.3
 QS| Grid level progression factor:                                          3.0
 QS| Relative density cutoff [a.u.]:                                        50.0
 QS| Interaction thresholds: eps_pgf_orb:                                1.0E-12
 QS|                         eps_filter_matrix:                          0.0E+00
 QS|                         eps_core_charge:                            1.0E-14
 QS|                         eps_rho_gspace:                             1.0E-12
 QS|                         eps_rho_rspace:                             1.0E-12
 QS|                         eps_gvg_rspace:                             1.0E-06
 QS|                         eps_ppl:                                    1.0E-02
 QS|                         eps_ppnl:                                   1.0E-08
 QS| GAPW|      One center basis from orbital basis primitives
 QS| GAPW|                   eps_fit:                                    1.0E-04
 QS| GAPW|                   eps_iso:                                    1.0E-12
 QS| GAPW|                   eps_svd:                                    1.0E-08
 QS| GAPW|                   eps_cpc:                                    1.0E-12
 QS| GAPW|   atom-r-grid: quadrature:                                     GC_LOG
 QS| GAPW|      atom-s-grid:  max l :                                          8
 QS| GAPW|      max_l_rho0 :                                                   2


 ATOMIC KIND INFORMATION

  1. Atomic kind: H                                     Number of atoms:       3

     Orbital Basis Set                                                   cc-pVQZ

       Number of orbital shell sets:                                           4
       Number of orbital shells:                                              10
       Number of primitive Cartesian functions:                               12
       Number of Cartesian basis functions:                                   35
       Number of spherical basis functions:                                   30
       Norm type:                                                              2

       Normalised Cartesian orbitals:

                        Set   Shell   Orbital            Exponent    Coefficient

                          1       1    1s               82.640000       0.000000
                                                        12.410000       0.000000
                                                         2.824000       0.000000
                                                         0.797700       0.601575
                                                         0.258100       0.000000
                                                         0.089890       0.000000

                          1       2    2s               82.640000       0.000000
                                                        12.410000       0.000000
                                                         2.824000       0.000000
                                                         0.797700       0.000000
                                                         0.258100       0.258078
                                                         0.089890       0.000000

                          1       3    3s               82.640000       0.039186
                                                        12.410000       0.072302
                                                         2.824000       0.117344
                                                         0.797700       0.154530
                                                         0.258100       0.128360
                                                         0.089890       0.034648

                          1       4    4s               82.640000       0.000000
                                                        12.410000       0.000000
                                                         2.824000       0.000000
                                                         0.797700       0.000000
                                                         0.258100       0.000000
                                                         0.089890       0.117002

                          2       1    1px               2.292000       4.019836
                                                         0.838000       0.000000
                                                         0.292000       0.000000
                          2       1    1py               2.292000       4.019836
                                                         0.838000       0.000000
                                                         0.292000       0.000000
                          2       1    1pz               2.292000       4.019836
                                                         0.838000       0.000000
                                                         0.292000       0.000000

                          2       2    2px               2.292000       0.000000
                                                         0.838000       1.142865
                                                         0.292000       0.000000
                          2       2    2py               2.292000       0.000000
                                                         0.838000       1.142865
                                                         0.292000       0.000000
                          2       2    2pz               2.292000       0.000000
                                                         0.838000       1.142865
                                                         0.292000       0.000000

                          2       3    3px               2.292000       0.000000
                                                         0.838000       0.000000
                                                         0.292000       0.305963
                          2       3    3py               2.292000       0.000000
                                                         0.838000       0.000000
                                                         0.292000       0.305963
                          2       3    3pz               2.292000       0.000000
                                                         0.838000       0.000000
                                                         0.292000       0.305963

                          3       1    1dx2              2.062000       5.840024
                                                         0.662000       0.000000
                          3       1    1dxy              2.062000      10.115218
                                                         0.662000       0.000000
                          3       1    1dxz              2.062000      10.115218
                                                         0.662000       0.000000
                          3       1    1dy2              2.062000       5.840024
                                                         0.662000       0.000000
                          3       1    1dyz              2.062000      10.115218
                                                         0.662000       0.000000
                          3       1    1dz2              2.062000       5.840024
                                                         0.662000       0.000000

                          3       2    2dx2              2.062000       0.000000
                                                         0.662000       0.799670
                          3       2    2dxy              2.062000       0.000000
                                                         0.662000       1.385069
                          3       2    2dxz              2.062000       0.000000
                                                         0.662000       1.385069
                          3       2    2dy2              2.062000       0.000000
                                                         0.662000       0.799670
                          3       2    2dyz              2.062000       0.000000
                                                         0.662000       1.385069
                          3       2    2dz2              2.062000       0.000000
                                                         0.662000       0.799670

                          4       1    1fx3              1.397000       3.123535
                          4       1    1fx2y             1.397000       6.984436
                          4       1    1fx2z             1.397000       6.984436
                          4       1    1fxy2             1.397000       6.984436
                          4       1    1fxyz             1.397000      12.097399
                          4       1    1fxz2             1.397000       6.984436
                          4       1    1fy3              1.397000       3.123535
                          4       1    1fy2z             1.397000       6.984436
                          4       1    1fyz2             1.397000       6.984436
                          4       1    1fz3              1.397000       3.123535

     RI Auxiliary Basis Set                                        cc-pVQZ-RIFIT

       Number of orbital shell sets:                                          15
       Number of orbital shells:                                              15
       Number of primitive Cartesian functions:                               15
       Number of Cartesian basis functions:                                   70
       Number of spherical basis functions:                                   55
       Norm type:                                                              2

       Normalised Cartesian orbitals:

                        Set   Shell   Orbital            Exponent    Coefficient

                          1       1    1px               0.224508       0.220283
                          1       1    1py               0.224508       0.220283
                          1       1    1pz               0.224508       0.220283

                          2       1    1s                0.227635       0.234877

                          3       1    1s                0.433111       0.380504

                          4       1    1px               0.516293       0.623822
                          4       1    1py               0.516293       0.623822
                          4       1    1pz               0.516293       0.623822

                          5       1    1dx2              0.527598       0.537577
                          5       1    1dxy              0.527598       0.931110
                          5       1    1dxz              0.527598       0.931110
                          5       1    1dy2              0.527598       0.537577
                          5       1    1dyz              0.527598       0.931110
                          5       1    1dz2              0.527598       0.537577

                          6       1    1fx3              0.671931       0.601776
                          6       1    1fx2y             0.671931       1.345612
                          6       1    1fx2z             0.671931       1.345612
                          6       1    1fxy2             0.671931       1.345612
                          6       1    1fxyz             0.671931       2.330669
                          6       1    1fxz2             0.671931       1.345612
                          6       1    1fy3              0.671931       0.601776
                          6       1    1fy2z             0.671931       1.345612
                          6       1    1fyz2             0.671931       1.345612
                          6       1    1fz3              0.671931       0.601776

                          7       1    1dx2              1.017710       1.697272
                          7       1    1dxy              1.017710       2.939762
                          7       1    1dxz              1.017710       2.939762
                          7       1    1dy2              1.017710       1.697272
                          7       1    1dyz              1.017710       2.939762
                          7       1    1dz2              1.017710       1.697272

                          8       1    1s                1.182483       0.808177

                          9       1    1px               1.228568       1.843695
                          9       1    1py               1.228568       1.843695
                          9       1    1pz               1.228568       1.843695

                         10       1    1fx3              1.896433       6.213178
                         10       1    1fx2y             1.896433      13.893089
                         10       1    1fx2z             1.896433      13.893089
                         10       1    1fxy2             1.896433      13.893089
                         10       1    1fxyz             1.896433      24.063536
                         10       1    1fxz2             1.896433      13.893089
                         10       1    1fy3              1.896433       6.213178
                         10       1    1fy2z             1.896433      13.893089
                         10       1    1fyz2             1.896433      13.893089
                         10       1    1fz3              1.896433       6.213178

                         11       1    1gx4              2.130883       8.911979
                         11       1    1gx3y             2.130883      23.578879
                         11       1    1gx3z             2.130883      23.578879
                         11       1    1gx2y2            2.130883      30.440202
                         11       1    1gx2yz            2.130883      52.723977
                         11       1    1gx2z2            2.130883      30.440202
                         11       1    1gxy3             2.130883      23.578879
                         11       1    1gxy2z            2.130883      52.723977
                         11       1    1gxyz2            2.130883      52.723977
                         11       1    1gxz3             2.130883      23.578879
                         11       1    1gy4              2.130883       8.911979
                         11       1    1gy3z             2.130883      23.578879
                         11       1    1gy2z2            2.130883      30.440202
                         11       1    1gyz3             2.130883      23.578879
                         11       1    1gz4              2.130883       8.911979

                         12       1    1dx2              2.778181       9.839891
                         12       1    1dxy              2.778181      17.043192
                         12       1    1dxz              2.778181      17.043192
                         12       1    1dy2              2.778181       9.839891
                         12       1    1dyz              2.778181      17.043192
                         12       1    1dz2              2.778181       9.839891

                         13       1    1px               3.228653       6.169030
                         13       1    1py               3.228653       6.169030
                         13       1    1pz               3.228653       6.169030

                         14       1    1s                4.308910       2.131502

                         15       1    1s               21.883534       7.211045

       Atomic covalent radius [Angstrom]:                                  0.320

       Atomic van der Waals radius [Angstrom]:                             1.090

     The atoms of this atomic kind are PAW atoms (GAPW):
       Hard Gaussian function radius:                                      1.200
       Rho0 radius:                                                        1.200
       Maximum GTO radius used for PAW projector construction:            24.566

     GAPW Soft Basis Set                                            cc-pVQZ_soft

       Number of orbital shell sets:                                           4
       Number of orbital shells:                                              10
       Number of primitive Cartesian functions:                               10
       Number of Cartesian basis functions:                                   35
       Number of spherical basis functions:                                   30
       Norm type:                                                              2

       Normalised Cartesian orbitals:

                        Set   Shell   Orbital            Exponent    Coefficient

                          1       1    1s                2.824000       0.000000
                                                         0.797700       0.601575
                                                         0.258100       0.000000
                                                         0.089890       0.000000

                          1       2    2s                2.824000       0.000000
                                                         0.797700       0.000000
                                                         0.258100       0.258078
                                                         0.089890       0.000000

                          1       3    3s                2.824000       0.117344
                                                         0.797700       0.154530
                                                         0.258100       0.128360
                                                         0.089890       0.034648

                          1       4    4s                2.824000       0.000000
                                                         0.797700       0.000000
                                                         0.258100       0.000000
                                                         0.089890       0.117002

                          2       1    1px               2.292000       4.019836
                                                         0.838000       0.000000
                                                         0.292000       0.000000
                          2       1    1py               2.292000       4.019836
                                                         0.838000       0.000000
                                                         0.292000       0.000000
                          2       1    1pz               2.292000       4.019836
                                                         0.838000       0.000000
                                                         0.292000       0.000000

                          2       2    2px               2.292000       0.000000
                                                         0.838000       1.142865
                                                         0.292000       0.000000
                          2       2    2py               2.292000       0.000000
                                                         0.838000       1.142865
                                                         0.292000       0.000000
                          2       2    2pz               2.292000       0.000000
                                                         0.838000       1.142865
                                                         0.292000       0.000000

                          2       3    3px               2.292000       0.000000
                                                         0.838000       0.000000
                                                         0.292000       0.305963
                          2       3    3py               2.292000       0.000000
                                                         0.838000       0.000000
                                                         0.292000       0.305963
                          2       3    3pz               2.292000       0.000000
                                                         0.838000       0.000000
                                                         0.292000       0.305963

                          3       1    1dx2              2.062000       5.840024
                                                         0.662000       0.000000
                          3       1    1dxy              2.062000      10.115218
                                                         0.662000       0.000000
                          3       1    1dxz              2.062000      10.115218
                                                         0.662000       0.000000
                          3       1    1dy2              2.062000       5.840024
                                                         0.662000       0.000000
                          3       1    1dyz              2.062000      10.115218
                                                         0.662000       0.000000
                          3       1    1dz2              2.062000       5.840024
                                                         0.662000       0.000000

                          3       2    2dx2              2.062000       0.000000
                                                         0.662000       0.799670
                          3       2    2dxy              2.062000       0.000000
                                                         0.662000       1.385069
                          3       2    2dxz              2.062000       0.000000
                                                         0.662000       1.385069
                          3       2    2dy2              2.062000       0.000000
                                                         0.662000       0.799670
                          3       2    2dyz              2.062000       0.000000
                                                         0.662000       1.385069
                          3       2    2dz2              2.062000       0.000000
                                                         0.662000       0.799670

                          4       1    1fx3              1.397000       3.123535
                          4       1    1fx2y             1.397000       6.984436
                          4       1    1fx2z             1.397000       6.984436
                          4       1    1fxy2             1.397000       6.984436
                          4       1    1fxyz             1.397000      12.097399
                          4       1    1fxz2             1.397000       6.984436
                          4       1    1fy3              1.397000       3.123535
                          4       1    1fy2z             1.397000       6.984436
                          4       1    1fyz2             1.397000       6.984436
                          4       1    1fz3              1.397000       3.123535

     AE Potential information for                                            ALL

       Description:                                       All-electron potential
                                          Krack, Parrinello, PCCP 2, 2105 (2000)

       Gaussian exponent of the core charge distribution:              12.500000
       Electronic configuration (s p d ...):                           1   0   0

  2. Atomic kind: F                                     Number of atoms:       6

     Orbital Basis Set                                                   cc-pVQZ

       Number of orbital shell sets:                                           5
       Number of orbital shells:                                              15
       Number of primitive Cartesian functions:                               24
       Number of Cartesian basis functions:                                   70
       Number of spherical basis functions:                                   55
       Norm type:                                                              2

       Normalised Cartesian orbitals:

                        Set   Shell   Orbital            Exponent    Coefficient

                          1       1    1px              80.390000       0.000000
                                                        18.630000       0.000000
                                                         5.694000       0.000000
                                                         1.953000       3.290924
                                                         0.670200       0.000000
                                                         0.216600       0.000000
                          1       1    1py              80.390000       0.000000
                                                        18.630000       0.000000
                                                         5.694000       0.000000
                                                         1.953000       3.290924
                                                         0.670200       0.000000
                                                         0.216600       0.000000
                          1       1    1pz              80.390000       0.000000
                                                        18.630000       0.000000
                                                         5.694000       0.000000
                                                         1.953000       3.290924
                                                         0.670200       0.000000
                                                         0.216600       0.000000

                          1       2    2px              80.390000       2.177765
                                                        18.630000       2.438752
                                                         5.694000       2.112749
                                                         1.953000       1.189876
                                                         0.670200       0.382202
                                                         0.216600       0.051274
                          1       2    2py              80.390000       2.177765
                                                        18.630000       2.438752
                                                         5.694000       2.112749
                                                         1.953000       1.189876
                                                         0.670200       0.382202
                                                         0.216600       0.051274
                          1       2    2pz              80.390000       2.177765
                                                        18.630000       2.438752
                                                         5.694000       2.112749
                                                         1.953000       1.189876
                                                         0.670200       0.382202
                                                         0.216600       0.051274

                          1       3    3px              80.390000       0.000000
                                                        18.630000       0.000000
                                                         5.694000       0.000000
                                                         1.953000       0.000000
                                                         0.670200       0.864362
                                                         0.216600       0.000000
                          1       3    3py              80.390000       0.000000
                                                        18.630000       0.000000
                                                         5.694000       0.000000
                                                         1.953000       0.000000
                                                         0.670200       0.864362
                                                         0.216600       0.000000
                          1       3    3pz              80.390000       0.000000
                                                        18.630000       0.000000
                                                         5.694000       0.000000
                                                         1.953000       0.000000
                                                         0.670200       0.864362
                                                         0.216600       0.000000

                          1       4    4px              80.390000       0.000000
                                                        18.630000       0.000000
                                                         5.694000       0.000000
                                                         1.953000       0.000000
                                                         0.670200       0.000000
                                                         0.216600       0.210627
                          1       4    4py              80.390000       0.000000
                                                        18.630000       0.000000
                                                         5.694000       0.000000
                                                         1.953000       0.000000
                                                         0.670200       0.000000
                                                         0.216600       0.210627
                          1       4    4pz              80.390000       0.000000
                                                        18.630000       0.000000
                                                         5.694000       0.000000
                                                         1.953000       0.000000
                                                         0.670200       0.000000
                                                         0.216600       0.210627

                          2       1    1s            74530.000000       0.305409
                                                     11170.000000       0.571488
                                                      2543.000000       0.984652
                                                       721.000000       1.579315
                                                       235.900000       2.328994
                                                        85.600000       2.998782
                                                        33.550000       3.062569
                                                        13.930000       2.029128
                                                         5.915000       0.570457
                                                         1.843000       0.019335
                                                         0.712400      -0.001114
                                                         0.263700       0.000228

                          2       2    2s            74530.000000       0.000000
                                                     11170.000000       0.000000
                                                      2543.000000       0.000000
                                                       721.000000       0.000000
                                                       235.900000       0.000000
                                                        85.600000       0.000000
                                                        33.550000       0.000000
                                                        13.930000       0.000000
                                                         5.915000       0.000000
                                                         1.843000       1.127338
                                                         0.712400       0.000000
                                                         0.263700       0.000000

                          2       3    3s            74530.000000       0.000000
                                                     11170.000000       0.000000
                                                      2543.000000       0.000000
                                                       721.000000       0.000000
                                                       235.900000       0.000000
                                                        85.600000       0.000000
                                                        33.550000       0.000000
                                                        13.930000       0.000000
                                                         5.915000       0.000000
                                                         1.843000       0.000000
                                                         0.712400       0.552654
                                                         0.263700       0.000000

                          2       4    4s            74530.000000      -0.070726
                                                     11170.000000      -0.133192
                                                      2543.000000      -0.227404
                                                       721.000000      -0.371673
                                                       235.900000      -0.551778
                                                        85.600000      -0.763388
                                                        33.550000      -0.856807
                                                        13.930000      -0.800980
                                                         5.915000      -0.299821
                                                         1.843000       0.336804
                                                         0.712400       0.323309
                                                         0.263700       0.071116

                          2       5    5s            74530.000000       0.000000
                                                     11170.000000       0.000000
                                                      2543.000000       0.000000
                                                       721.000000       0.000000
                                                       235.900000       0.000000
                                                        85.600000       0.000000
                                                        33.550000       0.000000
                                                        13.930000       0.000000
                                                         5.915000       0.000000
                                                         1.843000       0.000000
                                                         0.712400       0.000000
                                                         0.263700       0.262266

                          3       1    1dx2              5.014000      27.652349
                                                         1.725000       0.000000
                                                         0.586000       0.000000
                          3       1    1dxy              5.014000      47.895274
                                                         1.725000       0.000000
                                                         0.586000       0.000000
                          3       1    1dxz              5.014000      47.895274
                                                         1.725000       0.000000
                                                         0.586000       0.000000
                          3       1    1dy2              5.014000      27.652349
                                                         1.725000       0.000000
                                                         0.586000       0.000000
                          3       1    1dyz              5.014000      47.895274
                                                         1.725000       0.000000
                                                         0.586000       0.000000
                          3       1    1dz2              5.014000      27.652349
                                                         1.725000       0.000000
                                                         0.586000       0.000000

                          3       2    2dx2              5.014000       0.000000
                                                         1.725000       4.273566
                                                         0.586000       0.000000
                          3       2    2dxy              5.014000       0.000000
                                                         1.725000       7.402033
                                                         0.586000       0.000000
                          3       2    2dxz              5.014000       0.000000
                                                         1.725000       7.402033
                                                         0.586000       0.000000
                          3       2    2dy2              5.014000       0.000000
                                                         1.725000       4.273566
                                                         0.586000       0.000000
                          3       2    2dyz              5.014000       0.000000
                                                         1.725000       7.402033
                                                         0.586000       0.000000
                          3       2    2dz2              5.014000       0.000000
                                                         1.725000       4.273566
                                                         0.586000       0.000000

                          3       3    3dx2              5.014000       0.000000
                                                         1.725000       0.000000
                                                         0.586000       0.645997
                          3       3    3dxy              5.014000       0.000000
                                                         1.725000       0.000000
                                                         0.586000       1.118899
                          3       3    3dxz              5.014000       0.000000
                                                         1.725000       0.000000
                                                         0.586000       1.118899
                          3       3    3dy2              5.014000       0.000000
                                                         1.725000       0.000000
                                                         0.586000       0.645997
                          3       3    3dyz              5.014000       0.000000
                                                         1.725000       0.000000
                                                         0.586000       1.118899
                          3       3    3dz2              5.014000       0.000000
                                                         1.725000       0.000000
                                                         0.586000       0.645997

                          4       1    1fx3              3.562000      25.660538
                                                         1.148000       0.000000
                          4       1    1fx2y             3.562000      57.378707
                                                         1.148000       0.000000
                          4       1    1fx2z             3.562000      57.378707
                                                         1.148000       0.000000
                          4       1    1fxy2             3.562000      57.378707
                                                         1.148000       0.000000
                          4       1    1fxyz             3.562000      99.382837
                                                         1.148000       0.000000
                          4       1    1fxz2             3.562000      57.378707
                                                         1.148000       0.000000
                          4       1    1fy3              3.562000      25.660538
                                                         1.148000       0.000000
                          4       1    1fy2z             3.562000      57.378707
                                                         1.148000       0.000000
                          4       1    1fyz2             3.562000      57.378707
                                                         1.148000       0.000000
                          4       1    1fz3              3.562000      25.660538
                                                         1.148000       0.000000

                          4       2    2fx3              3.562000       0.000000
                                                         1.148000       2.008277
                          4       2    2fx2y             3.562000       0.000000
                                                         1.148000       4.490645
                          4       2    2fx2z             3.562000       0.000000
                                                         1.148000       4.490645
                          4       2    2fxy2             3.562000       0.000000
                                                         1.148000       4.490645
                          4       2    2fxyz             3.562000       0.000000
                                                         1.148000       7.778025
                          4       2    2fxz2             3.562000       0.000000
                                                         1.148000       4.490645
                          4       2    2fy3              3.562000       0.000000
                                                         1.148000       2.008277
                          4       2    2fy2z             3.562000       0.000000
                                                         1.148000       4.490645
                          4       2    2fyz2             3.562000       0.000000
                                                         1.148000       4.490645
                          4       2    2fz3              3.562000       0.000000
                                                         1.148000       2.008277

                          5       1    1gx4              2.376000      12.023008
                          5       1    1gx3y             2.376000      31.809888
                          5       1    1gx3z             2.376000      31.809888
                          5       1    1gx2y2            2.376000      41.066389
                          5       1    1gx2yz            2.376000      71.129073
                          5       1    1gx2z2            2.376000      41.066389
                          5       1    1gxy3             2.376000      31.809888
                          5       1    1gxy2z            2.376000      71.129073
                          5       1    1gxyz2            2.376000      71.129073
                          5       1    1gxz3             2.376000      31.809888
                          5       1    1gy4              2.376000      12.023008
                          5       1    1gy3z             2.376000      31.809888
                          5       1    1gy2z2            2.376000      41.066389
                          5       1    1gyz3             2.376000      31.809888
                          5       1    1gz4              2.376000      12.023008

     RI Auxiliary Basis Set                                        cc-pVQZ-RIFIT

       Number of orbital shell sets:                                          30
       Number of orbital shells:                                              30
       Number of primitive Cartesian functions:                               30
       Number of Cartesian basis functions:                                  181
       Number of spherical basis functions:                                  132
       Norm type:                                                              2

       Normalised Cartesian orbitals:

                        Set   Shell   Orbital            Exponent    Coefficient

                          1       1    1s                0.388309       0.350585

                          2       1    1dx2              0.492454       0.476484
                          2       1    1dxy              0.492454       0.825295
                          2       1    1dxz              0.492454       0.825295
                          2       1    1dy2              0.492454       0.476484
                          2       1    1dyz              0.492454       0.825295
                          2       1    1dz2              0.492454       0.476484

                          3       1    1px               0.599155       0.751388
                          3       1    1py               0.599155       0.751388
                          3       1    1pz               0.599155       0.751388

                          4       1    1s                0.928360       0.674058

                          5       1    1fx3              1.019438       1.537329
                          5       1    1fx2y             1.019438       3.437571
                          5       1    1fx2z             1.019438       3.437571
                          5       1    1fxy2             1.019438       3.437571
                          5       1    1fxyz             1.019438       5.954048
                          5       1    1fxz2             1.019438       3.437571
                          5       1    1fy3              1.019438       1.537329
                          5       1    1fy2z             1.019438       3.437571
                          5       1    1fyz2             1.019438       3.437571
                          5       1    1fz3              1.019438       1.537329

                          6       1    1px               1.040485       1.497908
                          6       1    1py               1.040485       1.497908
                          6       1    1pz               1.040485       1.497908

                          7       1    1dx2              1.252671       2.441318
                          7       1    1dxy              1.252671       4.228487
                          7       1    1dxz              1.252671       4.228487
                          7       1    1dy2              1.252671       2.441318
                          7       1    1dyz              1.252671       4.228487
                          7       1    1dz2              1.252671       2.441318

                          8       1    1gx4              1.743606       5.133559
                          8       1    1gx3y             1.743606      13.582121
                          8       1    1gx3z             1.743606      13.582121
                          8       1    1gx2y2            1.743606      17.534443
                          8       1    1gx2yz            1.743606      30.370546
                          8       1    1gx2z2            1.743606      17.534443
                          8       1    1gxy3             1.743606      13.582121
                          8       1    1gxy2z            1.743606      30.370546
                          8       1    1gxyz2            1.743606      30.370546
                          8       1    1gxz3             1.743606      13.582121
                          8       1    1gy4              1.743606       5.133559
                          8       1    1gy3z             1.743606      13.582121
                          8       1    1gy2z2            1.743606      17.534443
                          8       1    1gyz3             1.743606      13.582121
                          8       1    1gz4              1.743606       5.133559

                          9       1    1fx3              1.822572       5.681922
                          9       1    1fx2y             1.822572      12.705163
                          9       1    1fx2z             1.822572      12.705163
                          9       1    1fxy2             1.822572      12.705163
                          9       1    1fxyz             1.822572      22.005988
                          9       1    1fxz2             1.822572      12.705163
                          9       1    1fy3              1.822572       5.681922
                          9       1    1fy2z             1.822572      12.705163
                          9       1    1fyz2             1.822572      12.705163
                          9       1    1fz3              1.822572       5.681922

                         10       1    1s                1.903710       1.155076

                         11       1    1px               2.214521       3.850702
                         11       1    1py               2.214521       3.850702
                         11       1    1pz               2.214521       3.850702

                         12       1    1dx2              2.405932       7.649892
                         12       1    1dxy              2.405932      13.250002
                         12       1    1dxz              2.405932      13.250002
                         12       1    1dy2              2.405932       7.649892
                         12       1    1dyz              2.405932      13.250002
                         12       1    1dz2              2.405932       7.649892

                         13       1    1gx4              3.357883      31.125465
                         13       1    1gx3y             3.357883      82.350239
                         13       1    1gx3z             3.357883      82.350239
                         13       1    1gx2y2            3.357883     106.313701
                         13       1    1gx2yz            3.357883     184.140732
                         13       1    1gx2z2            3.357883     106.313701
                         13       1    1gxy3             3.357883      82.350239
                         13       1    1gxy2z            3.357883     184.140732
                         13       1    1gxyz2            3.357883     184.140732
                         13       1    1gxz3             3.357883      82.350239
                         13       1    1gy4              3.357883      31.125465
                         13       1    1gy3z             3.357883      82.350239
                         13       1    1gy2z2            3.357883     106.313701
                         13       1    1gyz3             3.357883      82.350239
                         13       1    1gz4              3.357883      31.125465

                         14       1    1hx5              3.569493      46.378372
                         14       1    1hx4y             3.569493     139.135116
                         14       1    1hx4z             3.569493     139.135116
                         14       1    1hx3y2            3.569493     212.532400
                         14       1    1hx3yz            3.569493     368.116915
                         14       1    1hx3z2            3.569493     212.532400
                         14       1    1hx2y3            3.569493     212.532400
                         14       1    1hx2y2z           3.569493     475.236893
                         14       1    1hx2yz2           3.569493     475.236893
                         14       1    1hx2z3            3.569493     212.532400
                         14       1    1hxy4             3.569493     139.135116
                         14       1    1hxy3z            3.569493     368.116915
                         14       1    1hxy2z2           3.569493     475.236893
                         14       1    1hxyz3            3.569493     368.116915
                         14       1    1hxz4             3.569493     139.135116
                         14       1    1hy5              3.569493      46.378372
                         14       1    1hy4z             3.569493     139.135116
                         14       1    1hy3z2            3.569493     212.532400
                         14       1    1hy2z3            3.569493     212.532400
                         14       1    1hyz4             3.569493     139.135116
                         14       1    1hz5              3.569493      46.378372

                         15       1    1s                3.589292       1.858518

                         16       1    1fx3              4.034030      33.952170
                         16       1    1fx2y             4.034030      75.919360
                         16       1    1fx2z             4.034030      75.919360
                         16       1    1fxy2             4.034030      75.919360
                         16       1    1fxyz             4.034030     131.496188
                         16       1    1fxz2             4.034030      75.919360
                         16       1    1fy3              4.034030      33.952170
                         16       1    1fy2z             4.034030      75.919360
                         16       1    1fyz2             4.034030      75.919360
                         16       1    1fz3              4.034030      33.952170

                         17       1    1px               4.382706       9.038951
                         17       1    1py               4.382706       9.038951
                         17       1    1pz               4.382706       9.038951

                         18       1    1dx2              4.513550      23.004691
                         18       1    1dxy              4.513550      39.845294
                         18       1    1dxz              4.513550      39.845294
                         18       1    1dy2              4.513550      23.004691
                         18       1    1dyz              4.513550      39.845294
                         18       1    1dz2              4.513550      23.004691

                         19       1    1fx3              5.972404      82.089986
                         19       1    1fx2y             5.972404     183.558788
                         19       1    1fx2z             5.972404     183.558788
                         19       1    1fxy2             5.972404     183.558788
                         19       1    1fxyz             5.972404     317.933147
                         19       1    1fxz2             5.972404     183.558788
                         19       1    1fy3              5.972404      82.089986
                         19       1    1fy2z             5.972404     183.558788
                         19       1    1fyz2             5.972404     183.558788
                         19       1    1fz3              5.972404      82.089986

                         20       1    1s                6.356614       2.853182

                         21       1    1gx4              6.490418     190.627402
                         21       1    1gx3y             6.490418     504.352698
                         21       1    1gx3z             6.490418     504.352698
                         21       1    1gx2y2            6.490418     651.116534
                         21       1    1gx2yz            6.490418    1127.766918
                         21       1    1gx2z2            6.490418     651.116534
                         21       1    1gxy3             6.490418     504.352698
                         21       1    1gxy2z            6.490418    1127.766918
                         21       1    1gxyz2            6.490418    1127.766918
                         21       1    1gxz3             6.490418     504.352698
                         21       1    1gy4              6.490418     190.627402
                         21       1    1gy3z             6.490418     504.352698
                         21       1    1gy2z2            6.490418     651.116534
                         21       1    1gyz3             6.490418     504.352698
                         21       1    1gz4              6.490418     190.627402

                         22       1    1px               6.791106      15.626645
                         22       1    1py               6.791106      15.626645
                         22       1    1pz               6.791106      15.626645

                         23       1    1dx2              7.297609      53.330482
                         23       1    1dxy              7.297609      92.371105
                         23       1    1dxz              7.297609      92.371105
                         23       1    1dy2              7.297609      53.330482
                         23       1    1dyz              7.297609      92.371105
                         23       1    1dz2              7.297609      53.330482

                         24       1    1fx3             13.812186     541.433211
                         24       1    1fx2y            13.812186    1210.681466
                         24       1    1fx2z            13.812186    1210.681466
                         24       1    1fxy2            13.812186    1210.681466
                         24       1    1fxyz            13.812186    2096.961811
                         24       1    1fxz2            13.812186    1210.681466
                         24       1    1fy3             13.812186     541.433211
                         24       1    1fy2z            13.812186    1210.681466
                         24       1    1fyz2            13.812186    1210.681466
                         24       1    1fz3             13.812186     541.433211

                         25       1    1dx2             22.819797     392.152577
                         25       1    1dxy             22.819797     679.228188
                         25       1    1dxz             22.819797     679.228188
                         25       1    1dy2             22.819797     392.152577
                         25       1    1dyz             22.819797     679.228188
                         25       1    1dz2             22.819797     392.152577

                         26       1    1px              23.473144      73.646849
                         26       1    1py              23.473144      73.646849
                         26       1    1pz              23.473144      73.646849

                         27       1    1s               27.620303       8.586801

                         28       1    1px              81.008226     346.418829
                         28       1    1py              81.008226     346.418829
                         28       1    1pz              81.008226     346.418829

                         29       1    1s               93.461930      21.423289

                         30       1    1s              431.676958      67.496188

       Atomic covalent radius [Angstrom]:                                  0.720

       Atomic van der Waals radius [Angstrom]:                             1.470

     The atoms of this atomic kind are PAW atoms (GAPW):
       Hard Gaussian function radius:                                      1.512
       Rho0 radius:                                                        1.512
       Maximum GTO radius used for PAW projector construction:            24.566

     GAPW Soft Basis Set                                            cc-pVQZ_soft

       Number of orbital shell sets:                                           5
       Number of orbital shells:                                              15
       Number of primitive Cartesian functions:                               11
       Number of Cartesian basis functions:                                   70
       Number of spherical basis functions:                                   55
       Norm type:                                                              2

       Normalised Cartesian orbitals:

                        Set   Shell   Orbital            Exponent    Coefficient

                          1       1    1px               1.953000       3.290924
                                                         0.670200       0.000000
                                                         0.216600       0.000000
                          1       1    1py               1.953000       3.290924
                                                         0.670200       0.000000
                                                         0.216600       0.000000
                          1       1    1pz               1.953000       3.290924
                                                         0.670200       0.000000
                                                         0.216600       0.000000

                          1       2    2px               1.953000       1.189876
                                                         0.670200       0.382202
                                                         0.216600       0.051274
                          1       2    2py               1.953000       1.189876
                                                         0.670200       0.382202
                                                         0.216600       0.051274
                          1       2    2pz               1.953000       1.189876
                                                         0.670200       0.382202
                                                         0.216600       0.051274

                          1       3    3px               1.953000       0.000000
                                                         0.670200       0.864362
                                                         0.216600       0.000000
                          1       3    3py               1.953000       0.000000
                                                         0.670200       0.864362
                                                         0.216600       0.000000
                          1       3    3pz               1.953000       0.000000
                                                         0.670200       0.864362
                                                         0.216600       0.000000

                          1       4    4px               1.953000       0.000000
                                                         0.670200       0.000000
                                                         0.216600       0.210627
                          1       4    4py               1.953000       0.000000
                                                         0.670200       0.000000
                                                         0.216600       0.210627
                          1       4    4pz               1.953000       0.000000
                                                         0.670200       0.000000
                                                         0.216600       0.210627

                          2       1    1s                1.843000       0.019335
                                                         0.712400      -0.001114
                                                         0.263700       0.000228

                          2       2    2s                1.843000       1.127338
                                                         0.712400       0.000000
                                                         0.263700       0.000000

                          2       3    3s                1.843000       0.000000
                                                         0.712400       0.552654
                                                         0.263700       0.000000

                          2       4    4s                1.843000       0.336804
                                                         0.712400       0.323309
                                                         0.263700       0.071116

                          2       5    5s                1.843000       0.000000
                                                         0.712400       0.000000
                                                         0.263700       0.262266

                          3       1    1dx2              1.725000       0.000000
                                                         0.586000       0.000000
                          3       1    1dxy              1.725000       0.000000
                                                         0.586000       0.000000
                          3       1    1dxz              1.725000       0.000000
                                                         0.586000       0.000000
                          3       1    1dy2              1.725000       0.000000
                                                         0.586000       0.000000
                          3       1    1dyz              1.725000       0.000000
                                                         0.586000       0.000000
                          3       1    1dz2              1.725000       0.000000
                                                         0.586000       0.000000

                          3       2    2dx2              1.725000       4.273566
                                                         0.586000       0.000000
                          3       2    2dxy              1.725000       7.402033
                                                         0.586000       0.000000
                          3       2    2dxz              1.725000       7.402033
                                                         0.586000       0.000000
                          3       2    2dy2              1.725000       4.273566
                                                         0.586000       0.000000
                          3       2    2dyz              1.725000       7.402033
                                                         0.586000       0.000000
[...]
 Sparse matrix multiplication: The distributed block-compressed sparse row 
 library.
 https://doi.org/10.1016/j.parco.2014.03.012

 M. Del Ben, J. Hutter, J. VandeVondele.
 J. Chem. Theory Comput. 9, 2654-2671 (2013).
 Electron Correlation in the Condensed Phase from a Resolution of Identity 
 Approach Based on the Gaussian and Plane Waves Scheme.
 https://doi.org/10.1021/ct4002202

 M. Del Ben, J. Hutter, J. VandeVondele.
 J. Chem. Theory Comput. 8, 4177-4188 (2012).
 Second-Order Moller-Plesset Perturbation Theory in the Condensed Phase: An 
 Efficient and Massively Parallel Gaussian and Plane Waves Approach.
 https://doi.org/10.1021/ct300531w

 M. Guidon, J. Hutter, J. VandeVondele.
 J. Chem. Theory Comput. 5, 3010-3021 (2009).
 Robust Periodic Hartree-Fock Exchange for Large-Scale Simulations Using 
 Gaussian Basis Sets.
 https://doi.org/10.1021/ct900494g

 M. Guidon, F. Schiffmann, J. Hutter, J. VandeVondele.
 J. Chem. Phys. 128, 214104 (2008).
 Ab initio molecular dynamics using hybrid density functionals.
 https://doi.org/10.1063/1.2931945

 L. Genovese, T. Deutsch, S. Goedecker.
 J. Chem. Phys. 127, 054704 (2007).
 Efficient and accurate three-dimensional Poisson solver for surface problems.
 https://doi.org/10.1063/1.2754685

 J. VandeVondele, J. Hutter.
 J. Chem. Phys. 127, 114105 (2007).
 Gaussian basis sets for accurate calculations on molecular systems in gas and 
 condensed phases.
 https://doi.org/10.1063/1.2770708

 L. Genovese, T. Deutsch, A. Neelov, S. Goedecker, G. Beylkin.
 J. Chem. Phys. 125, 074105 (2006).
 Efficient solution of Poisson's equation with free boundary conditions.
 https://doi.org/10.1063/1.2335442

 M. Frigo, S. G. Johnson.
 Proc. IEEE 93, 216-231 (2005).
 The design and implementation of FFTW3.
 https://doi.org/10.1109/JPROC.2004.840301

 M. Krack, M. Parrinello.
 Phys. Chem. Chem. Phys. 2, 2105-2112 (2000).
 All-electron ab-initio molecular dynamics.
 https://doi.org/10.1039/b001167n

 G. Lippert, J. Hutter, M. Parrinello.
 Theor. Chem. Acc. 103, 124-140 (1999).
 The Gaussian and augmented-plane-wave density functional method for ab initio 
 molecular dynamics simulations.
 https://doi.org/10.1007/s002140050523

 J. P. Perdew, K. Burke, M. Ernzerhof.
 Phys. Rev. Lett. 77, 3865-3868 (1996).
 Generalized gradient approximation made simple.
 https://doi.org/10.1103/PhysRevLett.77.3865


 -------------------------------------------------------------------------------
 -                                                                             -
 -                                T I M I N G                                  -
 -                                                                             -
 -------------------------------------------------------------------------------
 SUBROUTINE                       CALLS  ASD         SELF TIME        TOTAL TIME
                                MAXIMUM       AVERAGE  MAXIMUM  AVERAGE  MAXIMUM
 CP2K                                 1  1.0    0.029    0.048 5116.520 5116.520
 qs_energies                          1  2.0    0.001    0.001 5112.661 5112.821
 mp2_main                             1  3.0    0.000    0.001 4735.367 4735.526
 mp2_gpw_main                         1  4.0    0.000    0.001 4733.205 4733.251
 rpa_ri_compute_en                    1  5.0    0.001    0.002 4706.374 4706.376
 rpa_num_int                          1  6.0    0.002    0.002 4702.862 4703.098
 start_bse_calculation                1  7.0    0.003    0.003 3186.813 3186.813
 cp_fm_syevd                         89  7.0    0.001    0.001 2508.349 2510.056
 cp_fm_redistribute_end              89  8.0 1253.073 2507.735 1255.397 2507.795
 cp_fm_syevd_base                    89  8.0 1250.514 2501.675 1250.514 2501.675
 create_hermitian_form_of_ABBA        1  8.0    0.003    0.004 1658.260 1658.852
 compute_GW_self_energy             100  7.0    0.010    0.019 1483.014 1491.407
 compute_GW_self_energy_deep        100  8.0  780.432  781.922 1479.329 1487.721
 diagonalize_C                        1  8.0    0.007    0.008 1467.664 1467.771
 parallel_gemm_fm                   387  8.4    0.001    0.001 1326.176 1335.129
 parallel_gemm_fm_gemm              387  9.4    0.001    0.001 1326.175 1335.128
 cp_fm_gemm                         387 10.4 1326.174 1335.127 1326.174 1335.127
 cp_fm_power                          2  7.5    1.917    1.976 1325.515 1326.632
 scf_env_do_scf                       1  3.0    0.000    0.000  371.895  371.905
 scf_env_do_scf_inner_loop           83  4.0    0.002    0.006  371.895  371.905
 qs_ks_build_kohn_sham_matrix        84  7.0    0.012    0.014  329.488  329.562
 qs_ks_update_qs_env                 83  5.0    0.001    0.001  327.899  327.972
 rebuild_ks_matrix                   83  6.0    0.000    0.000  327.888  327.962
 hfx_ks_matrix                       84  8.0    0.003    0.004  245.055  245.133
 integrate_four_center               84  9.0    2.038    2.690  245.047  245.122
 integrate_four_center_main          84 10.0    0.723    1.880  157.211  180.263
 integrate_four_center_bin        11247 11.0  156.488  179.182  156.488  179.182
 cp_fm_syrk                           2  8.5   68.031   70.425   68.031   70.425
 mp_sync                            869  9.6   38.658   54.059   38.658   54.059
 calc_screening_functions             1 10.0   35.965   38.392   43.761   46.191
 create_B                             1  8.0    0.001    0.001   34.529   35.206
 mp2_ri_gpw_compute_in                1  5.0    0.051    0.059   26.754   26.765
 mp2_ri_gpw_compute_in_loop           1  6.0    0.000    0.001   26.564   26.593
 fft_wrap_pw1pw2                   1755  9.9    0.028    0.037   26.069   26.521
 fft_wrap_pw1pw2_250               1251 11.1    0.870    0.949   24.704   25.134
 create_A                             1  8.0    0.022    0.025   24.688   24.924
 rpa_num_int_RPA_matrix_operati     100  7.0    0.001    0.003   24.050   24.052
 qs_rho_update_rho_low               84  5.0    0.001    0.001   23.839   23.843
 sum_up_and_integrate                84  8.0    0.001    0.001   23.760   23.803
 integrate_v_rspace                  84  9.0    0.002    0.002   23.723   23.782
 contract_B_L                         4  7.0    0.149    0.161   19.257   23.060
 fft3d_ps                          1755 11.9    8.254    8.946   22.401   22.963
 calc_mat_Q                         100  8.0    0.001    0.001   22.140   22.241
 contract_S_to_Q                    100  9.0    0.001    0.001   22.048   22.144
 pw_poisson_solve                    84  8.0    0.492    0.530   20.903   20.918
 calculate_rho_elec                  84  6.0    0.183    0.197   20.910   20.913
 mp_alltoall_d11v                  1704  9.5   17.120   18.692   17.120   18.692
 density_rs2pw                       84  7.0    0.005    0.006   15.241   16.663
 rs_gather_matrices                  84 10.0    0.010    0.015   15.535   16.154
 grid_integrate_task_list            84 10.0    0.586   15.841    0.586   15.841
 mp_alltoall_z22v                  1755 13.9   12.163   15.431   12.163   15.431
 powell_optimize                5685282 11.0   14.097   14.903   14.097   14.903
 qs_vxc_create                       84  8.0    0.001    0.001   14.576   14.576
 xc_vxc_pw_create                    83  9.0    0.233    0.265   14.575   14.575
 ps_wavelet_solve                    84  9.0    8.297   12.038   14.449   14.521
 transfer_rs2pw                     421  8.4    0.008    0.015   13.037   14.435
 qs_scf_new_mos                      83  5.0    0.001    0.001   13.898   13.945
 eigensolver_symm                    84  6.0    0.004    0.005   13.006   13.018
 mp_cart_create                     707  9.8    8.956   12.793    8.957   12.794
 dbt_pgrid_create_expert             84 10.8    0.000    0.000    8.921   12.763
 mp_waitany                       21252 11.5   11.034   12.726   11.034   12.726
 mp_sum_d                         22663  6.9    9.583   12.505    9.583   12.505
 mp2_eri_3c_integrate                 1  7.0    0.045    0.062    4.896   12.291
 integrate_set_3c                 38096  8.0    4.394   11.091    4.851   12.242
 grid_collocate_task_list            84  7.0    5.110   12.219    5.110   12.219
 xc_pw_derive                       498 11.0    0.004    0.005   11.204   11.963
 mp_alltoall_d54                     84 10.0    4.574   11.356    4.574   11.356
 transfer_rs2pw_250                 169 10.0    1.352    1.550    8.793   11.096
 dbt_total                            8  8.0    0.000    0.000   11.084   11.084
 fm_general_add_bse                   5 10.2    0.000    0.000    9.960   10.941
 dbt_contract                         4  9.0    0.001    0.001   10.089   10.407
 prepare_gapw_den                    84  8.0    0.003    0.003   10.046   10.112
 calc_pair_dist_radii                 1 10.0    3.036    3.129    9.337    9.725
 yz_to_x                            669 13.2    0.597    0.735    6.819    8.972
 xc_pw_divergence                    83 10.0    0.002    0.003    7.614    8.319
 dbt_tas_multiply                     8 11.5    0.000    0.000    7.729    7.729
 dbt_tas_total                        8 12.5    0.007    0.013    7.728    7.728
 potential_pw2rs                     84 10.0    0.017    0.024    7.600    7.681
 calculate_vxc_atom                  84  8.0    0.094    0.820    7.247    7.248
 transfer_pw2rs                     421 10.6    0.006    0.009    7.120    7.213
 xc_rho_set_and_dset_create          83 10.0    0.183    0.241    6.554    7.138
 x_to_yz                            750 12.9    0.879    1.014    6.762    7.122
 dbt_tas_dbm                          8 13.5    0.000    0.000    6.868    6.869
 dbt_tas_mm_1N                        8 14.5    0.000    0.000    6.092    6.687
 dbm_multiply                         8 15.5    6.092    6.687    6.092    6.687
 gspace_mixing                       82  5.0    0.178    0.191    6.515    6.515
 gaVxcgb_GC                         166  9.0    0.210    6.305    0.210    6.305
 mp_sum_dm                         5128  7.7    5.268    5.444    5.268    5.444
 calculate_rho_atom                 420  9.0    2.428    5.437    2.428    5.437
 mp_waitall_1                     88990 12.0    4.351    5.294    4.351    5.294
 integrate_vhg0_rspace               84  8.0    0.505    0.548    5.096    5.165
 mp_sum_dv                        53322  9.5    4.355    4.893    4.355    4.893
 qs_energies_init_hamiltonians        1  3.0    0.000    0.000    4.783    4.783
 build_core_hamiltonian_matrix        1  4.0    0.000    0.000    4.770    4.770
 overlap_condnum                      1  5.0    0.000    0.001    4.753    4.768
 broyden_mixing                      82  6.0    4.496    4.631    4.670    4.747
 arnoldi_conjugate_gradient           7  6.0    0.095    0.117    4.488    4.488
 mp_bcast_dv                      14110  9.0    2.702    4.330    2.702    4.330
 cp_fm_uplo_to_full                 103  8.0    3.359    4.083    3.359    4.083
 put_rho0_on_grid                    84  9.0    0.200    0.280    4.004    4.069
 transfer_pw2rs_250                 169 11.0    1.213    1.426    3.730    4.023
 create_integ_mat                     4  6.0    0.013    0.023    3.474    3.999
 cp_fm_redistribute_start            89  8.0    1.250    2.355    2.436    3.949
 array2fm                             4  7.0    0.000    0.000    2.951    3.902
 cp_fm_cholesky_invert              101  8.0    3.611    3.679    3.611    3.679
 mp_sum_l                          1192  6.7    2.536    3.428    2.536    3.428
 integrate_four_center_load          84 10.0    0.000    0.001    2.478    3.368
 hfx_load_balance                     1 11.0    0.000    0.000    2.478    3.367
 hfx_load_balance_range               1 12.0    0.000    0.000    2.442    3.332
 dbt_copy                            12 10.0    0.001    0.001    1.728    3.146
 create_qs_kind_set                   1  2.0    0.000    0.000    3.063    3.064
 read_qs_kind                         5  3.0    1.745    1.779    3.063    3.064
 transfer_rs2pw_90                   84  9.0    0.263    0.340    1.889    2.938
 calculate_rho_atom_coeff            84  6.0    0.096    0.154    2.928    2.929
 dbcsr_sym_matrix_vector_mult     14021  7.0    0.224    0.243    2.613    2.887
 dbt_reshape                          8 11.5    0.255    0.289    1.092    2.499
 fm_general_add_bse_4_buf_from_       1 10.0    2.206    2.424    2.206    2.424
 mp_alltoall_d45                     85 10.0    1.574    2.388    1.574    2.388
 mp_waitall_2                        48 15.8    0.863    2.270    0.863    2.270
 fm_general_add_bse_1_setup           5 11.2    2.160    2.258    2.160    2.258
 fm_general_add_bse_4_buf_from_       1 10.0    2.144    2.223    2.144    2.223
 dbt_communicate_buffer               8 12.5    0.003    0.003    0.741    2.133
 cp_fm_cholesky_decompose           102  9.0    1.882    2.032    1.882    2.032
 dbcsr_multiply_generic             184  8.0    0.011    0.012    1.810    1.944
 transfer_pw2rs_30                   84 12.0    0.771    0.838    1.734    1.845
 transfer_rs2pw_30                   84  9.0    0.795    0.855    1.791    1.844
 dbt_remap                            8 10.0    0.002    0.002    1.841    1.841
 fm_general_add_bse_6_buffer_to       1 10.0    0.913    1.785    0.913    1.785
 mp_isendrecv_dv                  72240 12.0    0.733    1.715    0.733    1.715
 compute_Erpa_by_freq_int           100  8.0    0.003    0.004    1.704    1.705
 cp_fm_to_fm_submat_general         112 10.1    0.715    1.684    0.715    1.684
 array2fm_fill                        4  8.0    0.412    0.522    0.822    1.648
 compute_vec_Sigma_x_minus_vxc_       1  4.0    0.000    0.000    1.617    1.617
 integrate_four_center_getP          84 10.0    0.145    0.195    1.526    1.530
 xc_functional_eval                 415 10.8    0.001    0.002    0.976    1.510
 pbe_lda_eval                       415 11.8    0.976    1.509    0.976    1.509
 mult_B_with_W                        1  8.0    0.000    0.000    1.328    1.482
 array2fm_info                        4  8.0    1.229    1.444    1.256    1.470
 dbt_tas_estimate_result_nze          4 12.0    0.031    0.039    1.461    1.461
 integrate_four_center_dist_KS       84 10.0    0.085    0.090    1.422    1.425
 dbt_nd_mp_comm                       8 11.0    0.000    0.000    1.257    1.414
 mp_sendrecv_dv                   36120 10.0    1.348    1.410    1.348    1.410
 pw_scatter_p                       918 12.1    1.195    1.401    1.195    1.401
 cp_fm_create                       421  7.8    1.088    1.373    1.088    1.373
 parser_read_line                370886  4.0    0.125    0.137    1.318    1.349
 mp_sum_iv                          401  9.6    0.762    1.280    0.762    1.280
 dbcsr_add_d                      21093  7.0    0.019    0.023    0.192    1.278
 dbcsr_add_anytype                21093  8.0    0.025    0.155    0.173    1.257
 transfer_pw2rs_90                   84 12.0    0.249    0.302    1.121    1.249
 parser_read_line_low               400  5.0    0.114    0.535    1.193    1.228
 rs_grid_zero                       422 11.2    1.180    1.218    1.180    1.218
 dbcsr_rep_row_to_rep_col_vec     14021  8.0    0.078    0.105    0.556    1.212
 mp_wait                            151  9.0    0.409    1.165    0.409    1.165
 broadcast_input_information        400  6.0    0.271    0.296    1.079    1.158
 abc_contract                     38096  9.0    0.457    1.151    0.457    1.151
 fm_general_add_bse_5_comm_buff       5 11.2    0.000    0.000    0.891    1.147
 communicate_buffer                   5 12.2    0.000    0.000    0.891    1.147
 cp2k_distribution_to_z_slices       84  9.0    0.388    0.428    0.908    1.106
 multiply_cannon                    184  9.0    0.022    0.024    1.014    1.084
 fm_general_add_bse_6_buffer_to       1 10.0    0.770    1.078    0.770    1.078
 pw_gather_p                        837 11.8    0.922    1.074    0.922    1.074
 copy_dbcsr_to_fm                   142  6.8    0.003    0.003    0.962    1.054
 multiply_cannon_loop               184 10.0    0.022    0.027    0.962    1.035
 dbcsr_col_vec_to_rep_row         14021  8.0    0.101    0.122    0.817    1.028
 fft_wrap_pw1pw2_90                 168 10.5    0.026    0.041    0.836    0.953
 dbcsr_complete_redistribute        312  8.5    0.185    0.208    0.844    0.902
 pw_derive                          750 11.3    0.820    0.883    0.820    0.883
 multiply_cannon_multrec           3264 11.1    0.784    0.870    0.789    0.876
 dbcsr_finalize                   23024 10.2    0.022    0.256    0.196    0.850
 allocate_matrices_gw                 1  7.0    0.002    0.002    0.580    0.815
 array2fm_buffer_send                 4  8.0    0.728    0.808    0.728    0.808
 make_m2s                           368  9.0    0.008    0.008    0.715    0.789
 get_vec_sigma_x                      1  8.0    0.002    0.002    0.539    0.773
 hybrid_alltoall_any                512 11.1    0.454    0.518    0.701    0.772
 Vh_1c_gg_integrals                  84  8.0    0.034    0.537    0.575    0.766
 make_images                        368 10.0    0.098    0.116    0.658    0.731
 fm_general_add_bse_3_alloc_buf       5 11.2    0.663    0.722    0.663    0.722
 pw_copy                           1255 10.6    0.638    0.694    0.638    0.694
 ao_to_mo_and_store_B_mult_gw_1      12  7.0    0.000    0.000    0.642    0.693
 calculate_dm_sparse                 83  6.0    0.001    0.001    0.649    0.687
 cp_dbcsr_plus_fm_fm_t               83  7.0    0.001    0.002    0.648    0.684
 calculate_rho0_atom                420  9.0    0.597    0.618    0.597    0.618
 ao_to_mo_and_store_B_mult_bse_      12  7.0    0.000    0.000    0.561    0.607
 dbt_tas_replicate                    8 13.5    0.271    0.317    0.585    0.606
 pw_poisson_rebuild                  84  9.0    0.000    0.000    0.578    0.601
 ps_wavelet_create                    1 10.0    0.000    0.000    0.578    0.601
 RS_z_slice_distribution              1 11.0    0.499    0.560    0.577    0.601
 postprocess_bse                      1  9.0    0.000    0.000    0.419    0.576
 ao_to_mo_and_store_B_E_Ex_gw_1      12  7.0    0.192    0.297    0.473    0.569
 transfer_rs2pw_10                   84  9.0    0.203    0.216    0.556    0.565
 dbt_split_blocks_generic            20  8.8    0.280    0.296    0.530    0.564
 mp_bcast_i_src                    1600  7.0    0.320    0.563    0.320    0.563
 mp_irecv_dm3                      3036 11.5    0.212    0.552    0.212    0.552
 transfer_pw2rs_10                   84 12.0    0.201    0.258    0.529    0.551
 make_images_data                   368 11.0    0.006    0.006    0.476    0.543
 init_scf_run                         1  3.0    0.000    0.000    0.538    0.538
 qs_init_subsys                       1  2.0    0.007    0.009    0.537    0.538
 mp_bcast_am_src                    400  7.0    0.443    0.502    0.473    0.524
 pw_poisson_set                      85  8.9    0.002    0.003    0.501    0.516
 mp_isend_dm3                      3036 11.5    0.195    0.514    0.195    0.514
 -------------------------------------------------------------------------------

 The number of warnings for this run is : 2
 
 -------------------------------------------------------------------------------
  **** **** ******  **  PROGRAM ENDED AT                 2025-03-31 02:42:25.421
 ***** ** ***  *** **   PROGRAM RAN ON                              i07r06c04s09
 **    ****   ******    PROGRAM RAN BY                                   di38fab
 ***** **    ** ** **   PROGRAM PROCESS ID                                564985
  **** **  *******  **  PROGRAM STOPPED IN /hppfs/scratch/04/di38fab/07_MOL_non_
                                           aug/05_MOL_non_aug/05_MOL/aUKBqsEOTmq
                                           69kFe5R_nOg/5k_set_final_qzvp/BADKOH/
                                           cc-pVQZ/GW+BSE
