SIRIUS 7.6.1, git hash: https://api.github.com/repos/electronic-structure/SIRIUS/git/ref/tags/v7.6.1
 DBCSR| CPU Multiplication driver                                           XSMM (U)
 DBCSR| Multrec recursion limit                                              512 (U)
 DBCSR| Multiplication stack size                                           1000 (D)
 DBCSR| Maximum elements for images                                    UNLIMITED (U)
 DBCSR| Multiplicative factor virtual images                                   1 (U)
 DBCSR| Use multiplication densification                                       T (D)
 DBCSR| Multiplication size stacks                                             3 (U)
 DBCSR| Use memory pool for CPU allocation                                     F (U)
 DBCSR| Number of 3D layers                                               SINGLE (U)
 DBCSR| Use MPI memory allocation                                              F (U)
 DBCSR| Use RMA algorithm                                                      F (U)
 DBCSR| Use Communication thread                                               T (U)
 DBCSR| Communication thread load                                             60 (D)
 DBCSR| MPI: My process id                                                     0
 DBCSR| MPI: Number of processes                                              80
 DBCSR| OMP: Current number of threads                                         8
 DBCSR| OMP: Max number of threads                                             8
 DBCSR| Split modifier for TAS multiplication algorithm                  1.0E+00 (U)


  **** **** ******  **  PROGRAM STARTED AT               2025-05-05 03:59:26.173
 ***** ** ***  *** **   PROGRAM STARTED ON                              n2cn0307
 **    ****   ******    PROGRAM STARTED BY                              metdyn02
 ***** **    ** ** **   PROGRAM PROCESS ID                               4156778
  **** **  *******  **  PROGRAM STARTED IN /scratch/hpc-prf-metdyn/metdyn02_Remi
                                           /10_MOL/05_MOL/aUKBqsEOTmq69kFe5R_nOg
                                           /5k_set_final_qzvp/JUYGUF/SZV/GW+BSE/
                                           1e-4

 CP2K| version string:                 CP2K version 2025.1 (Development Version)
 CP2K| source code revision number:                                  git:4803c37
 CP2K| cp2kflags: omp libint fftw3 libxc libgrpp elpa parallel scalapack mpi_f08
 CP2K|             cosma xsmm plumed2 spglib sirius libvori libbqb libvdwxc hdf5
 CP2K| is freely available from                            https://www.cp2k.org/
 CP2K| Program compiled at                         Thu Apr 10 12:05:05 CEST 2025
 CP2K| Program compiled on                                              n2login1
 CP2K| Program compiled for                                                local
 CP2K| Data directory path    /opt/software/pc2/EB-SW/software/CP2K/2024.1-foss-
 CP2K| Input file name                                                    GW.inp

 GLOBAL| Force Environment number                                              1
 GLOBAL| Basis set file name            /scratch/hpc-prf-metdyn/metdyn02_Remi/BA
 GLOBAL| Potential file name            /pc2/groups/hpc-prf-metdyn/metdyn02_Remi
 GLOBAL| MM Potential file name                                     MM_POTENTIAL
 GLOBAL| Coordinate file name                                      __STD_INPUT__
 GLOBAL| Method name                                                        CP2K
 GLOBAL| Project name                                                       MoS2
 GLOBAL| Run type                                                         ENERGY
 GLOBAL| FFT library                                                       FFTW3
 GLOBAL| Diagonalization library                                            ELPA
 GLOBAL| DGEMM library                                                      BLAS
 GLOBAL| Minimum number of eigenvectors for ELPA usage                        16
 GLOBAL| Orthonormality check for eigenvectors                          DISABLED
 GLOBAL| Matrix multiplication library                                     COSMA
 GLOBAL| All-to-all communication in single precision                          F
 GLOBAL| FFTs using library dependent lengths                                  F
 GLOBAL| Grid backend                                                       AUTO
 GLOBAL| Global print level                                               MEDIUM
 GLOBAL| MPI I/O enabled                                                       T
 GLOBAL| Total number of message passing processes                            80
 GLOBAL| Number of threads for this process                                    8
 GLOBAL| This output is from process                                           0
 GLOBAL| OpenMP stack size per thread (OMP_STACKSIZE)                    default
 GLOBAL| CPU model name                          AMD EPYC 7763 64-Core Processor
 GLOBAL| CPUID                                                              1002

 MEMORY| system memory details [Kb]
 MEMORY|                        rank 0           min           max       average
 MEMORY| MemTotal            263899260     263899252     263899264     263899261
 MEMORY| MemFree             248386452     248386452     252228256     250933005
 MEMORY| Buffers                217696         31596        218052        131803
 MEMORY| Cached                7709228       4935772       7709228       5854799
 MEMORY| Slab                  2661928       1999924       2928888       2251520
 MEMORY| SReclaimable           825460        273636        946048        424294
 MEMORY| MemLikelyFree       257138836     256710732     258515084     257343902


 *** Fundamental physical constants (SI units) ***

 *** Literature: B. J. Mohr and B. N. Taylor,
 ***             CODATA recommended values of the fundamental physical
 ***             constants: 2006, Web Version 5.1
 ***             http://physics.nist.gov/constants

 Speed of light in vacuum [m/s]                             2.99792458000000E+08
 Magnetic constant or permeability of vacuum [N/A**2]       1.25663706143592E-06
 Electric constant or permittivity of vacuum [F/m]          8.85418781762039E-12
 Planck constant (h) [J*s]                                  6.62606896000000E-34
 Planck constant (h-bar) [J*s]                              1.05457162825177E-34
 Elementary charge [C]                                      1.60217648700000E-19
 Electron mass [kg]                                         9.10938215000000E-31
 Electron g factor [ ]                                     -2.00231930436220E+00
 Proton mass [kg]                                           1.67262163700000E-27
 Fine-structure constant                                    7.29735253760000E-03
 Rydberg constant [1/m]                                     1.09737315685270E+07
 Avogadro constant [1/mol]                                  6.02214179000000E+23
 Boltzmann constant [J/K]                                   1.38065040000000E-23
 Atomic mass unit [kg]                                      1.66053878200000E-27
 Bohr radius [m]                                            5.29177208590000E-11

 *** Conversion factors ***

 [u] -> [a.u.]                                              1.82288848426455E+03
 [Angstrom] -> [Bohr] = [a.u.]                              1.88972613288564E+00
 [a.u.] = [Bohr] -> [Angstrom]                              5.29177208590000E-01
 [a.u.] -> [s]                                              2.41888432650478E-17
 [a.u.] -> [fs]                                             2.41888432650478E-02
 [a.u.] -> [J]                                              4.35974393937059E-18
 [a.u.] -> [N]                                              8.23872205491840E-08
 [a.u.] -> [K]                                              3.15774647902944E+05
 [a.u.] -> [kJ/mol]                                         2.62549961709828E+03
 [a.u.] -> [kcal/mol]                                       6.27509468713739E+02
 [a.u.] -> [Pa]                                             2.94210107994716E+13
 [a.u.] -> [bar]                                            2.94210107994716E+08
 [a.u.] -> [atm]                                            2.90362800883016E+08
 [a.u.] -> [eV]                                             2.72113838565563E+01
 [a.u.] -> [Hz]                                             6.57968392072181E+15
 [a.u.] -> [1/cm] (wave numbers)                            2.19474631370540E+05
 [a.u./Bohr**2] -> [1/cm]                                   5.14048714338585E+03
 

 CELL_TOP| Volume [angstrom^3]:                                     27000.000000
 CELL_TOP| Vector a [angstrom    30.000     0.000     0.000   |a| =    30.000000
 CELL_TOP| Vector b [angstrom     0.000    30.000     0.000   |b| =    30.000000
 CELL_TOP| Vector c [angstrom     0.000     0.000    30.000   |c| =    30.000000
 CELL_TOP| Angle (b,c), alpha [degree]:                                90.000000
 CELL_TOP| Angle (a,c), beta  [degree]:                                90.000000
 CELL_TOP| Angle (a,b), gamma [degree]:                                90.000000
 CELL_TOP| Numerically orthorhombic:                                         YES
 CELL_TOP| Periodicity                                                      NONE

 GENERATE|  Preliminary Number of Bonds generated:                             0
 GENERATE|  Achieved consistency in connectivity generation.

 CELL| Volume [angstrom^3]:                                         27000.000000
 CELL| Vector a [angstrom]:      30.000     0.000     0.000   |a| =    30.000000
 CELL| Vector b [angstrom]:       0.000    30.000     0.000   |b| =    30.000000
 CELL| Vector c [angstrom]:       0.000     0.000    30.000   |c| =    30.000000
 CELL| Angle (b,c), alpha [degree]:                                    90.000000
 CELL| Angle (a,c), beta  [degree]:                                    90.000000
 CELL| Angle (a,b), gamma [degree]:                                    90.000000
 CELL| Numerically orthorhombic:                                             YES
 CELL| Periodicity                                                          NONE

 CELL_REF| Volume [angstrom^3]:                                     27000.000000
 CELL_REF| Vector a [angstrom    30.000     0.000     0.000   |a| =    30.000000
 CELL_REF| Vector b [angstrom     0.000    30.000     0.000   |b| =    30.000000
 CELL_REF| Vector c [angstrom     0.000     0.000    30.000   |c| =    30.000000
 CELL_REF| Angle (b,c), alpha [degree]:                                90.000000
 CELL_REF| Angle (a,c), beta  [degree]:                                90.000000
 CELL_REF| Angle (a,b), gamma [degree]:                                90.000000
 CELL_REF| Numerically orthorhombic:                                         YES
 CELL_REF| Periodicity                                                      NONE

 *******************************************************************************
 *******************************************************************************
 **                                                                           **
 **     #####                         ##              ##                      **
 **    ##   ##            ##          ##              ##                      **
 **   ##     ##                       ##            ######                    **
 **   ##     ##  ##   ##  ##   #####  ##  ##   ####   ##    #####    #####    **
 **   ##     ##  ##   ##  ##  ##      ## ##   ##      ##   ##   ##  ##   ##   **
 **   ##  ## ##  ##   ##  ##  ##      ####     ###    ##   ######   ######    **
 **    ##  ###   ##   ##  ##  ##      ## ##      ##   ##   ##       ##        **
 **     #######   #####   ##   #####  ##  ##  ####    ##    #####   ##        **
 **           ##                                                    ##        **
 **                                                                           **
 **                                                ... make the atoms dance   **
 **                                                                           **
 **            Copyright (C) by CP2K developers group (2000-2025)             **
 **                      J. Chem. Phys. 152, 194103 (2020)                    **
 **                                                                           **
 *******************************************************************************

 DFT| Spin restricted Kohn-Sham (RKS) calculation                            RKS
 DFT| Multiplicity                                                             1
 DFT| Number of spin states                                                    1
 DFT| Charge                                                                   0
 DFT| Self-interaction correction (SIC)                                       NO
 DFT| Cutoffs: density                                              1.000000E-10
 DFT|          gradient                                             1.000000E-10
 DFT|          tau                                                  1.000000E-10
 DFT|          cutoff_smoothing_range                               0.000000E+00
 DFT| XC density smoothing                                                  NONE
 DFT| XC derivatives                                                          PW

 FUNCTIONAL| PBE:
 FUNCTIONAL| J.P.Perdew, K.Burke, M.Ernzerhof, Phys. Rev. Letter, vol. 77, n 18,
 FUNCTIONAL|  pp. 3865-3868, (1996)sx=0.750sc=1.000{spin unpolarized}           


 QS| Method:                                                                GAPW
 QS| Density plane wave grid type                        NON-SPHERICAL FULLSPACE
 QS| Number of grid levels:                                                    4
 QS| Density cutoff [a.u.]:                                                250.0
 QS| Multi grid cutoff [a.u.]: 1) grid level                               250.0
 QS|                           2) grid level                                83.3
 QS|                           3) grid level                                27.8
 QS|                           4) grid level                                 9.3
 QS| Grid level progression factor:                                          3.0
 QS| Relative density cutoff [a.u.]:                                        50.0
 QS| Interaction thresholds: eps_pgf_orb:                                1.0E-12
 QS|                         eps_filter_matrix:                          0.0E+00
 QS|                         eps_core_charge:                            1.0E-14
 QS|                         eps_rho_gspace:                             1.0E-12
 QS|                         eps_rho_rspace:                             1.0E-12
 QS|                         eps_gvg_rspace:                             1.0E-06
 QS|                         eps_ppl:                                    1.0E-02
 QS|                         eps_ppnl:                                   1.0E-08
 QS| GAPW|      One center basis from orbital basis primitives
 QS| GAPW|                   eps_fit:                                    1.0E-04
 QS| GAPW|                   eps_iso:                                    1.0E-12
 QS| GAPW|                   eps_svd:                                    1.0E-08
 QS| GAPW|                   eps_cpc:                                    1.0E-12
 QS| GAPW|   atom-r-grid: quadrature:                                     GC_LOG
 QS| GAPW|      atom-s-grid:  max l :                                          4
 QS| GAPW|      max_l_rho0 :                                                   2


 ATOMIC KIND INFORMATION

  1. Atomic kind: C                                     Number of atoms:       7

     Orbital Basis Set                                         aug-SZV-MOLOPT-ae

       Number of orbital shell sets:                                           2
       Number of orbital shells:                                               6
       Number of primitive Cartesian functions:                               13
       Number of Cartesian basis functions:                                   15
       Number of spherical basis functions:                                   14
       Norm type:                                                              2

       Normalised Cartesian orbitals:

                        Set   Shell   Orbital            Exponent    Coefficient

                          1       1    2s                0.070000       0.000000
                                                         0.143687       0.040037
                                                         0.313471       0.177689
                                                         0.721783       0.139661
                                                         1.876046      -0.038599
                                                         6.036200      -0.128975
                                                        30.497239      -0.122578

                          1       2    3s                0.070000      -0.142268
                                                         0.143687       0.288819
                                                         0.313471       0.010360
                                                         0.721783       0.175994
                                                         1.876046       0.000000
                                                         6.036200       0.000000
                                                        30.497239       0.000000

                          1       3    3px               0.070000       0.000000
                                                         0.143687       0.012825
                                                         0.313471       0.142381
                                                         0.721783       0.396426
                                                         1.876046       0.544234
                                                         6.036200       0.508157
                                                        30.497239       0.384077
                          1       3    3py               0.070000       0.000000
                                                         0.143687       0.012825
                                                         0.313471       0.142381
                                                         0.721783       0.396426
                                                         1.876046       0.544234
                                                         6.036200       0.508157
                                                        30.497239       0.384077
                          1       3    3pz               0.070000       0.000000
                                                         0.143687       0.012825
                                                         0.313471       0.142381
                                                         0.721783       0.396426
                                                         1.876046       0.544234
                                                         6.036200       0.508157
                                                        30.497239       0.384077

                          1       4    4px               0.070000       0.076505
                                                         0.143687      -0.086104
                                                         0.313471       0.010230
                                                         0.721783       0.129894
                                                         1.876046       0.000000
                                                         6.036200       0.000000
                                                        30.497239       0.000000
                          1       4    4py               0.070000       0.076505
                                                         0.143687      -0.086104
                                                         0.313471       0.010230
                                                         0.721783       0.129894
                                                         1.876046       0.000000
                                                         6.036200       0.000000
                                                        30.497239       0.000000
                          1       4    4pz               0.070000       0.076505
                                                         0.143687      -0.086104
                                                         0.313471       0.010230
                                                         0.721783       0.129894
                                                         1.876046       0.000000
                                                         6.036200       0.000000
                                                        30.497239       0.000000

                          1       5    4dx2              0.070000       0.004316
                                                         0.143687       0.012639
                                                         0.313471       0.125057
                                                         0.721783       0.080411
                                                         1.876046       0.000000
                                                         6.036200       0.000000
                                                        30.497239       0.000000
                          1       5    4dxy              0.070000       0.007476
                                                         0.143687       0.021892
                                                         0.313471       0.216606
                                                         0.721783       0.139276
                                                         1.876046       0.000000
                                                         6.036200       0.000000
                                                        30.497239       0.000000
                          1       5    4dxz              0.070000       0.007476
                                                         0.143687       0.021892
                                                         0.313471       0.216606
                                                         0.721783       0.139276
                                                         1.876046       0.000000
                                                         6.036200       0.000000
                                                        30.497239       0.000000
                          1       5    4dy2              0.070000       0.004316
                                                         0.143687       0.012639
                                                         0.313471       0.125057
                                                         0.721783       0.080411
                                                         1.876046       0.000000
                                                         6.036200       0.000000
                                                        30.497239       0.000000
                          1       5    4dyz              0.070000       0.007476
                                                         0.143687       0.021892
                                                         0.313471       0.216606
                                                         0.721783       0.139276
                                                         1.876046       0.000000
                                                         6.036200       0.000000
                                                        30.497239       0.000000
                          1       5    4dz2              0.070000       0.004316
                                                         0.143687       0.012639
                                                         0.313471       0.125057
                                                         0.721783       0.080411
                                                         1.876046       0.000000
                                                         6.036200       0.000000
                                                        30.497239       0.000000

                          2       1    1s              742.737049       0.929185
                                                       136.180025       1.402437
                                                        38.098264       1.841991
                                                        13.087782       1.817278
                                                         5.082369       1.004768
                                                         2.093200       0.161650

     RI Auxiliary Basis Set             RI_aug-SZV-MOLOPT-ae_N_RI_048_s_p_d_f_g_

       Number of orbital shell sets:                                          14
       Number of orbital shells:                                              14
       Number of primitive Cartesian functions:                               14
       Number of Cartesian basis functions:                                   62
       Number of spherical basis functions:                                   48
       Norm type:                                                              2

       Normalised Cartesian orbitals:

                        Set   Shell   Orbital            Exponent    Coefficient

                          1       1    1s                0.182132       0.198701

                          2       1    7px               0.213594       0.206979
                          2       1    7py               0.213594       0.206979
                          2       1    7pz               0.213594       0.206979

                          3       1   10dx2              0.381125       0.304282
                          3       1   10dxy              0.381125       0.527033
                          3       1   10dxz              0.381125       0.527033
                          3       1   10dy2              0.381125       0.304282
                          3       1   10dyz              0.381125       0.527033
                          3       1   10dz2              0.381125       0.304282

                          4       1    2s                0.433905       0.381027

                          5       1   12fx3              0.524446       0.344573
                          5       1   12fx2y             0.524446       0.770488
                          5       1   12fx2z             0.524446       0.770488
                          5       1   12fxy2             0.524446       0.770488
                          5       1   12fxyz             0.524446       1.334524
                          5       1   12fxz2             0.524446       0.770488
                          5       1   12fy3              0.524446       0.344573
                          5       1   12fy2z             0.524446       0.770488
                          5       1   12fyz2             0.524446       0.770488
                          5       1   12fz3              0.524446       0.344573

                          6       1    8px               0.915857       1.277099
                          6       1    8py               0.915857       1.277099
                          6       1    8pz               0.915857       1.277099

                          7       1   14gx4              1.217666       1.912659
                          7       1   14gx3y             1.217666       5.060419
                          7       1   14gx3z             1.217666       5.060419
                          7       1   14gx2y2            1.217666       6.532973
                          7       1   14gx2yz            1.217666      11.315442
                          7       1   14gx2z2            1.217666       6.532973
                          7       1   14gxy3             1.217666       5.060419
                          7       1   14gxy2z            1.217666      11.315442
                          7       1   14gxyz2            1.217666      11.315442
                          7       1   14gxz3             1.217666       5.060419
                          7       1   14gy4              1.217666       1.912659
                          7       1   14gy3z             1.217666       5.060419
                          7       1   14gy2z2            1.217666       6.532973
                          7       1   14gyz3             1.217666       5.060419
                          7       1   14gz4              1.217666       1.912659

                          8       1   11dx2              1.581488       3.670921
                          8       1   11dxy              1.581488       6.358221
                          8       1   11dxz              1.581488       6.358221
                          8       1   11dy2              1.581488       3.670921
                          8       1   11dyz              1.581488       6.358221
                          8       1   11dz2              1.581488       3.670921

                          9       1    3s                1.620693       1.023730

                         10       1   13fx3              2.677157      13.496481
                         10       1   13fx2y             2.677157      30.179050
                         10       1   13fx2z             2.677157      30.179050
                         10       1   13fxy2             2.677157      30.179050
                         10       1   13fxyz             2.677157      52.271648
                         10       1   13fxz2             2.677157      30.179050
                         10       1   13fy3              2.677157      13.496481
                         10       1   13fy2z             2.677157      30.179050
                         10       1   13fyz2             2.677157      30.179050
                         10       1   13fz3              2.677157      13.496481

                         11       1    4s                5.999661       2.732154

                         12       1    9px               9.284861      23.102519
                         12       1    9py               9.284861      23.102519
                         12       1    9pz               9.284861      23.102519

                         13       1    5s               22.224963       7.295262

                         14       1    6s               82.329769      19.479498

       Atomic covalent radius [Angstrom]:                                  0.770

       Atomic van der Waals radius [Angstrom]:                             1.700

     The atoms of this atomic kind are PAW atoms (GAPW):
       Hard Gaussian function radius:                                      1.512
       Rho0 radius:                                                        1.512
       Maximum GTO radius used for PAW projector construction:            24.566

     GAPW Soft Basis Set                                  aug-SZV-MOLOPT-ae_soft

       Number of orbital shell sets:                                           2
       Number of orbital shells:                                               6
       Number of primitive Cartesian functions:                                6
       Number of Cartesian basis functions:                                   15
       Number of spherical basis functions:                                   14
       Norm type:                                                              2

       Normalised Cartesian orbitals:

                        Set   Shell   Orbital            Exponent    Coefficient

                          1       1    2s                0.070000       0.000000
                                                         0.143687       0.040037
                                                         0.313471       0.177689
                                                         0.721783       0.139661
                                                         1.876046      -0.038599

                          1       2    3s                0.070000      -0.142268
                                                         0.143687       0.288819
                                                         0.313471       0.010360
                                                         0.721783       0.175994
                                                         1.876046       0.000000

                          1       3    3px               0.070000       0.000000
                                                         0.143687       0.012825
                                                         0.313471       0.142381
                                                         0.721783       0.396426
                                                         1.876046       0.544234
                          1       3    3py               0.070000       0.000000
                                                         0.143687       0.012825
                                                         0.313471       0.142381
                                                         0.721783       0.396426
                                                         1.876046       0.544234
                          1       3    3pz               0.070000       0.000000
                                                         0.143687       0.012825
                                                         0.313471       0.142381
                                                         0.721783       0.396426
                                                         1.876046       0.544234

                          1       4    4px               0.070000       0.076505
                                                         0.143687      -0.086104
                                                         0.313471       0.010230
                                                         0.721783       0.129894
                                                         1.876046       0.000000
                          1       4    4py               0.070000       0.076505
                                                         0.143687      -0.086104
                                                         0.313471       0.010230
                                                         0.721783       0.129894
                                                         1.876046       0.000000
                          1       4    4pz               0.070000       0.076505
                                                         0.143687      -0.086104
                                                         0.313471       0.010230
                                                         0.721783       0.129894
                                                         1.876046       0.000000

                          1       5    4dx2              0.070000       0.004316
                                                         0.143687       0.012639
                                                         0.313471       0.125057
                                                         0.721783       0.080411
                                                         1.876046       0.000000
                          1       5    4dxy              0.070000       0.007476
                                                         0.143687       0.021892
                                                         0.313471       0.216606
                                                         0.721783       0.139276
                                                         1.876046       0.000000
                          1       5    4dxz              0.070000       0.007476
                                                         0.143687       0.021892
                                                         0.313471       0.216606
                                                         0.721783       0.139276
                                                         1.876046       0.000000
                          1       5    4dy2              0.070000       0.004316
                                                         0.143687       0.012639
                                                         0.313471       0.125057
                                                         0.721783       0.080411
                                                         1.876046       0.000000
                          1       5    4dyz              0.070000       0.007476
                                                         0.143687       0.021892
                                                         0.313471       0.216606
                                                         0.721783       0.139276
                                                         1.876046       0.000000
                          1       5    4dz2              0.070000       0.004316
                                                         0.143687       0.012639
                                                         0.313471       0.125057
                                                         0.721783       0.080411
                                                         1.876046       0.000000

                          2       1    1s                2.093200       0.161650

     AE Potential information for                                            ALL

       Description:                                       All-electron potential
                                          Krack, Parrinello, PCCP 2, 2105 (2000)

       Gaussian exponent of the core charge distribution:               4.109048
       Electronic configuration (s p d ...):                           4   2   0

  2. Atomic kind: H                                     Number of atoms:       6

     Orbital Basis Set                                         aug-SZV-MOLOPT-ae

       Number of orbital shell sets:                                           1
       Number of orbital shells:                                               4
       Number of primitive Cartesian functions:                                7
       Number of Cartesian basis functions:                                    6
       Number of spherical basis functions:                                    6
       Norm type:                                                              2

       Normalised Cartesian orbitals:

                        Set   Shell   Orbital            Exponent    Coefficient

                          1       1    1s                0.065428       0.000000
                                                         0.100112       0.016532
                                                         0.243077       0.102760
                                                         0.625955       0.185857
                                                         1.822143       0.188385
                                                         6.513144       0.143430
                                                        35.523221       0.095030

                          1       2    2s                0.065428       0.083549
                                                         0.100112       0.009605
                                                         0.243077       0.002524
                                                         0.625955       0.013457
                                                         1.822143       0.000000
                                                         6.513144       0.000000
                                                        35.523221       0.000000

                          1       3    3s                0.065428       0.037407
                                                         0.100112      -0.169070
                                                         0.243077      -0.018899
                                                         0.625955       0.012806
                                                         1.822143       0.000000
                                                         6.513144       0.000000
                                                        35.523221       0.000000

                          1       4    2px               0.065428       0.059908
                                                         0.100112      -0.023770
                                                         0.243077       0.000032
                                                         0.625955       0.017779
                                                         1.822143       0.000000
                                                         6.513144       0.000000
                                                        35.523221       0.000000
                          1       4    2py               0.065428       0.059908
                                                         0.100112      -0.023770
                                                         0.243077       0.000032
                                                         0.625955       0.017779
                                                         1.822143       0.000000
                                                         6.513144       0.000000
                                                        35.523221       0.000000
                          1       4    2pz               0.065428       0.059908
                                                         0.100112      -0.023770
                                                         0.243077       0.000032
                                                         0.625955       0.017779
                                                         1.822143       0.000000
                                                         6.513144       0.000000
                                                        35.523221       0.000000

     RI Auxiliary Basis Set             RI_aug-SZV-MOLOPT-ae_N_RI_007_s_p_d_f_g_

       Number of orbital shell sets:                                           5
       Number of orbital shells:                                               5
       Number of primitive Cartesian functions:                                5
       Number of Cartesian basis functions:                                    7
       Number of spherical basis functions:                                    7
       Norm type:                                                              2

       Normalised Cartesian orbitals:

                        Set   Shell   Orbital            Exponent    Coefficient

                          1       1    1s                0.148777       0.170731

                          2       1    5px               0.367452       0.407794
                          2       1    5py               0.367452       0.407794
                          2       1    5pz               0.367452       0.407794

                          3       1    2s                0.510503       0.430437

                          4       1    3s                1.106366       0.768837

                          5       1    4s                5.955292       2.716986

       Atomic covalent radius [Angstrom]:                                  0.320

       Atomic van der Waals radius [Angstrom]:                             1.090

     The atoms of this atomic kind are PAW atoms (GAPW):
       Hard Gaussian function radius:                                      1.200
       Rho0 radius:                                                        1.200
       Maximum GTO radius used for PAW projector construction:            24.566

     GAPW Soft Basis Set                                  aug-SZV-MOLOPT-ae_soft

       Number of orbital shell sets:                                           1
       Number of orbital shells:                                               4
       Number of primitive Cartesian functions:                                6
       Number of Cartesian basis functions:                                    6
       Number of spherical basis functions:                                    6
       Norm type:                                                              2

       Normalised Cartesian orbitals:

                        Set   Shell   Orbital            Exponent    Coefficient

                          1       1    1s                0.065428       0.000000
                                                         0.100112       0.016532
                                                         0.243077       0.102760
                                                         0.625955       0.185857
                                                         1.822143       0.188385
                                                         6.513144       0.000000

                          1       2    2s                0.065428       0.083549
                                                         0.100112       0.009605
                                                         0.243077       0.002524
                                                         0.625955       0.013457
                                                         1.822143       0.000000
                                                         6.513144       0.000000

                          1       3    3s                0.065428       0.037407
                                                         0.100112      -0.169070
                                                         0.243077      -0.018899
                                                         0.625955       0.012806
                                                         1.822143       0.000000
                                                         6.513144       0.000000

                          1       4    2px               0.065428       0.059908
                                                         0.100112      -0.023770
                                                         0.243077       0.000032
                                                         0.625955       0.017779
                                                         1.822143       0.000000
                                                         6.513144       0.000000
                          1       4    2py               0.065428       0.059908
                                                         0.100112      -0.023770
                                                         0.243077       0.000032
                                                         0.625955       0.017779
                                                         1.822143       0.000000
                                                         6.513144       0.000000
                          1       4    2pz               0.065428       0.059908
                                                         0.100112      -0.023770
                                                         0.243077       0.000032
                                                         0.625955       0.017779
                                                         1.822143       0.000000
                                                         6.513144       0.000000

     AE Potential information for                                            ALL

       Description:                                       All-electron potential
                                          Krack, Parrinello, PCCP 2, 2105 (2000)

       Gaussian exponent of the core charge distribution:              12.500000
       Electronic configuration (s p d ...):                           1   0   0

  3. Atomic kind: N                                     Number of atoms:       4

     Orbital Basis Set                                         aug-SZV-MOLOPT-ae

       Number of orbital shell sets:                                           2
       Number of orbital shells:                                               6
       Number of primitive Cartesian functions:                               13
       Number of Cartesian basis functions:                                   15
       Number of spherical basis functions:                                   14
       Norm type:                                                              2

       Normalised Cartesian orbitals:

                        Set   Shell   Orbital            Exponent    Coefficient

                          1       1    1s                0.090000       0.000000
                                                         0.184684       0.048330
                                                         0.402911       0.214496
                                                         0.927724       0.168591
                                                         2.411326      -0.046594
                                                         7.758467      -0.155691
                                                        39.198808      -0.147969

                          1       2    2s                0.090000      -0.118940
                                                         0.184684       0.080942
                                                         0.402911      -0.164238
                                                         0.927724      -0.024406
                                                         2.411326       0.000000
                                                         7.758467       0.000000
                                                        39.198808       0.000000

                          1       3    2px               0.090000       0.000000
                                                         0.184684       0.017552
                                                         0.402911       0.194858
                                                         0.927724       0.542535
                                                         2.411326       0.744820
                                                         7.758467       0.695446
                                                        39.198808       0.525635
                          1       3    2py               0.090000       0.000000
                                                         0.184684       0.017552
                                                         0.402911       0.194858
                                                         0.927724       0.542535
                                                         2.411326       0.744820
                                                         7.758467       0.695446
                                                        39.198808       0.525635
                          1       3    2pz               0.090000       0.000000
                                                         0.184684       0.017552
                                                         0.402911       0.194858
                                                         0.927724       0.542535
                                                         2.411326       0.744820
                                                         7.758467       0.695446
                                                        39.198808       0.525635

                          1       4    3px               0.090000      -0.032237
                                                         0.184684      -0.080882
                                                         0.402911       0.112185
                                                         0.927724       1.067728
                                                         2.411326       0.000000
                                                         7.758467       0.000000
                                                        39.198808       0.000000
                          1       4    3py               0.090000      -0.032237
                                                         0.184684      -0.080882
                                                         0.402911       0.112185
                                                         0.927724       1.067728
                                                         2.411326       0.000000
                                                         7.758467       0.000000
                                                        39.198808       0.000000
                          1       4    3pz               0.090000      -0.032237
                                                         0.184684      -0.080882
                                                         0.402911       0.112185
                                                         0.927724       1.067728
                                                         2.411326       0.000000
                                                         7.758467       0.000000
                                                        39.198808       0.000000

                          1       5    3dx2              0.090000      -0.010633
                                                         0.184684      -0.050923
                                                         0.402911       0.103346
                                                         0.927724      -0.777682
                                                         2.411326       0.000000
                                                         7.758467       0.000000
                                                        39.198808       0.000000
                          1       5    3dxy              0.090000      -0.018417
                                                         0.184684      -0.088201
                                                         0.402911       0.179000
                                                         0.927724      -1.346985
                                                         2.411326       0.000000
                                                         7.758467       0.000000
                                                        39.198808       0.000000
                          1       5    3dxz              0.090000      -0.018417
                                                         0.184684      -0.088201
                                                         0.402911       0.179000
                                                         0.927724      -1.346985
                                                         2.411326       0.000000
                                                         7.758467       0.000000
                                                        39.198808       0.000000
                          1       5    3dy2              0.090000      -0.010633
                                                         0.184684      -0.050923
                                                         0.402911       0.103346
                                                         0.927724      -0.777682
                                                         2.411326       0.000000
                                                         7.758467       0.000000
                                                        39.198808       0.000000
                          1       5    3dyz              0.090000      -0.018417
                                                         0.184684      -0.088201
                                                         0.402911       0.179000
                                                         0.927724      -1.346985
                                                         2.411326       0.000000
                                                         7.758467       0.000000
                                                        39.198808       0.000000
                          1       5    3dz2              0.090000      -0.010633
                                                         0.184684      -0.050923
                                                         0.402911       0.103346
                                                         0.927724      -0.777682
                                                         2.411326       0.000000
                                                         7.758467       0.000000
                                                        39.198808       0.000000

                          2       1    1s             1027.828458       1.185541
                                                       188.451223       1.789359
                                                        52.721861       2.350183
                                                        18.111382       2.318652
                                                         7.033180       1.281976
                                                         2.896652       0.206248

     RI Auxiliary Basis Set             RI_aug-SZV-MOLOPT-ae_N_RI_043_s_p_d_f_g_

       Number of orbital shell sets:                                          15
       Number of orbital shells:                                              15
       Number of primitive Cartesian functions:                               15
       Number of Cartesian basis functions:                                   49
       Number of spherical basis functions:                                   43
       Norm type:                                                              2

       Normalised Cartesian orbitals:

                        Set   Shell   Orbital            Exponent    Coefficient

                          1       1    1s                0.348881       0.323533

                          2       1   12dx2              0.415899       0.354517
                          2       1   12dxy              0.415899       0.614042
                          2       1   12dxz              0.415899       0.614042
                          2       1   12dy2              0.415899       0.354517
                          2       1   12dyz              0.415899       0.614042
                          2       1   12dz2              0.415899       0.354517

                          3       1    7px               0.565430       0.698898
                          3       1    7py               0.565430       0.698898
                          3       1    7pz               0.565430       0.698898

                          4       1    2s                0.604256       0.488456

                          5       1    8px               0.736384       0.972345
                          5       1    8py               0.736384       0.972345
                          5       1    8pz               0.736384       0.972345

                          6       1   15fx3              1.197807       2.209658
                          6       1   15fx2y             1.197807       4.940945
                          6       1   15fx2z             1.197807       4.940945
                          6       1   15fxy2             1.197807       4.940945
                          6       1   15fxyz             1.197807       8.557969
                          6       1   15fxz2             1.197807       4.940945
                          6       1   15fy3              1.197807       2.209658
                          6       1   15fy2z             1.197807       4.940945
                          6       1   15fyz2             1.197807       4.940945
                          6       1   15fz3              1.197807       2.209658

                          7       1   13dx2              1.339145       2.743833
                          7       1   13dxy              1.339145       4.752458
                          7       1   13dxz              1.339145       4.752458
                          7       1   13dy2              1.339145       2.743833
                          7       1   13dyz              1.339145       4.752458
                          7       1   13dz2              1.339145       2.743833

                          8       1    3s                2.115726       1.250273

                          9       1    9px               3.057998       5.764167
                          9       1    9py               3.057998       5.764167
                          9       1    9pz               3.057998       5.764167

                         10       1   14dx2              5.406341      31.549351
                         10       1   14dxy              5.406341      54.645078
                         10       1   14dxz              5.406341      54.645078
                         10       1   14dy2              5.406341      31.549351
                         10       1   14dyz              5.406341      54.645078
                         10       1   14dz2              5.406341      31.549351

                         11       1    4s                8.101925       3.422562

                         12       1   10px               9.242623      22.971223
                         12       1   10py               9.242623      22.971223
                         12       1   10pz               9.242623      22.971223

                         13       1   11px              24.533825      77.829934
                         13       1   11py              24.533825      77.829934
                         13       1   11pz              24.533825      77.829934

                         14       1    5s               30.207474       9.183239

                         15       1    6s              110.078037      24.220639

       Atomic covalent radius [Angstrom]:                                  0.750

       Atomic van der Waals radius [Angstrom]:                             1.550

     The atoms of this atomic kind are PAW atoms (GAPW):
       Hard Gaussian function radius:                                      1.512
       Rho0 radius:                                                        1.512
       Maximum GTO radius used for PAW projector construction:            24.566

     GAPW Soft Basis Set                                  aug-SZV-MOLOPT-ae_soft

       Number of orbital shell sets:                                           2
       Number of orbital shells:                                               6
       Number of primitive Cartesian functions:                                6
       Number of Cartesian basis functions:                                   15
       Number of spherical basis functions:                                   14
       Norm type:                                                              2

       Normalised Cartesian orbitals:

                        Set   Shell   Orbital            Exponent    Coefficient

                          1       1    1s                0.090000       0.000000
                                                         0.184684       0.048330
                                                         0.402911       0.214496
                                                         0.927724       0.168591
                                                         2.411326      -0.046594

                          1       2    2s                0.090000      -0.118940
                                                         0.184684       0.080942
                                                         0.402911      -0.164238
                                                         0.927724      -0.024406
                                                         2.411326       0.000000

                          1       3    2px               0.090000       0.000000
                                                         0.184684       0.017552
                                                         0.402911       0.194858
                                                         0.927724       0.542535
                                                         2.411326       0.744820
                          1       3    2py               0.090000       0.000000
                                                         0.184684       0.017552
                                                         0.402911       0.194858
                                                         0.927724       0.542535
                                                         2.411326       0.744820
                          1       3    2pz               0.090000       0.000000
                                                         0.184684       0.017552
                                                         0.402911       0.194858
                                                         0.927724       0.542535
                                                         2.411326       0.744820

                          1       4    3px               0.090000      -0.032237
                                                         0.184684      -0.080882
                                                         0.402911       0.112185
                                                         0.927724       1.067728
                                                         2.411326       0.000000
                          1       4    3py               0.090000      -0.032237
                                                         0.184684      -0.080882
                                                         0.402911       0.112185
                                                         0.927724       1.067728
                                                         2.411326       0.000000
                          1       4    3pz               0.090000      -0.032237
                                                         0.184684      -0.080882
                                                         0.402911       0.112185
                                                         0.927724       1.067728
                                                         2.411326       0.000000

                          1       5    3dx2              0.090000      -0.010633
                                                         0.184684      -0.050923
                                                         0.402911       0.103346
                                                         0.927724      -0.777682
                                                         2.411326       0.000000
                          1       5    3dxy              0.090000      -0.018417
                                                         0.184684      -0.088201
                                                         0.402911       0.179000
                                                         0.927724      -1.346985
                                                         2.411326       0.000000
                          1       5    3dxz              0.090000      -0.018417
                                                         0.184684      -0.088201
                                                         0.402911       0.179000
                                                         0.927724      -1.346985
                                                         2.411326       0.000000
                          1       5    3dy2              0.090000      -0.010633
                                                         0.184684      -0.050923
                                                         0.402911       0.103346
                                                         0.927724      -0.777682
                                                         2.411326       0.000000
                          1       5    3dyz              0.090000      -0.018417
                                                         0.184684      -0.088201
                                                         0.402911       0.179000
                                                         0.927724      -1.346985
                                                         2.411326       0.000000
                          1       5    3dz2              0.090000      -0.010633
                                                         0.184684      -0.050923
                                                         0.402911       0.103346
                                                         0.927724      -0.777682
                                                         2.411326       0.000000

                          2       1    1s                2.896652       0.206248

     AE Potential information for                                            ALL

       Description:                                       All-electron potential
                                          Krack, Parrinello, PCCP 2, 2105 (2000)

       Gaussian exponent of the core charge distribution:               5.979100
       Electronic configuration (s p d ...):                           4   3   0

  4. Atomic kind: O                                     Number of atoms:       1

     Orbital Basis Set                                         aug-SZV-MOLOPT-ae

       Number of orbital shell sets:                                           2
       Number of orbital shells:                                               6
       Number of primitive Cartesian functions:                               13
       Number of Cartesian basis functions:                                   15
       Number of spherical basis functions:                                   14
       Norm type:                                                              2

       Normalised Cartesian orbitals:

                        Set   Shell   Orbital            Exponent    Coefficient

                          1       1    1s                0.123000       0.000000
                                                         0.245881       0.059902
                                                         0.536420       0.265853
                                                         1.235135       0.208956
                                                         3.210345      -0.057750
                                                        10.329320      -0.192968
                                                        52.187762      -0.183398

                          1       2    2s                0.123000      -0.253465
                                                         0.245881       0.187097
                                                         0.536420       0.063592
                                                         1.235135       0.074938
                                                         3.210345       0.000000
                                                        10.329320       0.000000
                                                        52.187762       0.000000

                          1       3    2px               0.123000       0.000000
                                                         0.245881       0.025102
                                                         0.536420       0.278668
                                                         1.235135       0.775885
                                                         3.210345       1.065175
                                                        10.329320       0.994565
                                                        52.187762       0.751716
                          1       3    2py               0.123000       0.000000
                                                         0.245881       0.025102
                                                         0.536420       0.278668
                                                         1.235135       0.775885
                                                         3.210345       1.065175
                                                        10.329320       0.994565
                                                        52.187762       0.751716
                          1       3    2pz               0.123000       0.000000
                                                         0.245881       0.025102
                                                         0.536420       0.278668
                                                         1.235135       0.775885
                                                         3.210345       1.065175
                                                        10.329320       0.994565
                                                        52.187762       0.751716

                          1       4    3px               0.123000       0.048536
                                                         0.245881       0.257066
                                                         0.536420      -0.539300
                                                         1.235135      -0.153605
                                                         3.210345       0.000000
                                                        10.329320       0.000000
                                                        52.187762       0.000000
                          1       4    3py               0.123000       0.048536
                                                         0.245881       0.257066
                                                         0.536420      -0.539300
                                                         1.235135      -0.153605
                                                         3.210345       0.000000
                                                        10.329320       0.000000
                                                        52.187762       0.000000
                          1       4    3pz               0.123000       0.048536
                                                         0.245881       0.257066
                                                         0.536420      -0.539300
                                                         1.235135      -0.153605
                                                         3.210345       0.000000
                                                        10.329320       0.000000
                                                        52.187762       0.000000

                          1       5    3dx2              0.123000       0.022065
                                                         0.245881       0.038414
                                                         0.536420       0.100211
                                                         1.235135       0.626583
                                                         3.210345       0.000000
                                                        10.329320       0.000000
                                                        52.187762       0.000000
                          1       5    3dxy              0.123000       0.038217
                                                         0.245881       0.066534
                                                         0.536420       0.173571
                                                         1.235135       1.085274
                                                         3.210345       0.000000
                                                        10.329320       0.000000
                                                        52.187762       0.000000
                          1       5    3dxz              0.123000       0.038217
                                                         0.245881       0.066534
                                                         0.536420       0.173571
                                                         1.235135       1.085274
                                                         3.210345       0.000000
                                                        10.329320       0.000000
                                                        52.187762       0.000000
                          1       5    3dy2              0.123000       0.022065
                                                         0.245881       0.038414
                                                         0.536420       0.100211
                                                         1.235135       0.626583
                                                         3.210345       0.000000
                                                        10.329320       0.000000
                                                        52.187762       0.000000
                          1       5    3dyz              0.123000       0.038217
                                                         0.245881       0.066534
                                                         0.536420       0.173571
                                                         1.235135       1.085274
                                                         3.210345       0.000000
                                                        10.329320       0.000000
                                                        52.187762       0.000000
                          1       5    3dz2              0.123000       0.022065
                                                         0.245881       0.038414
                                                         0.536420       0.100211
                                                         1.235135       0.626583
                                                         3.210345       0.000000
                                                        10.329320       0.000000
                                                        52.187762       0.000000

                          2       1    1s             1355.584234       1.459053
                                                       248.544885       2.202176
                                                        69.533902       2.892385
                                                        23.886772       2.853580
                                                         9.275933       1.577736
                                                         3.820341       0.253831

     RI Auxiliary Basis Set             RI_aug-SZV-MOLOPT-ae_N_RI_054_s_p_d_f_g_

       Number of orbital shell sets:                                          18
       Number of orbital shells:                                              18
       Number of primitive Cartesian functions:                               18
       Number of Cartesian basis functions:                                   63
       Number of spherical basis functions:                                   54
       Norm type:                                                              2

       Normalised Cartesian orbitals:

                        Set   Shell   Orbital            Exponent    Coefficient

                          1       1    1s                0.430624       0.378864

                          2       1    8px               0.484961       0.576864
                          2       1    8py               0.484961       0.576864
                          2       1    8pz               0.484961       0.576864

                          3       1   14dx2              0.571732       0.618723
                          3       1   14dxy              0.571732       1.071659
                          3       1   14dxz              0.571732       1.071659
                          3       1   14dy2              0.571732       0.618723
                          3       1   14dyz              0.571732       1.071659
                          3       1   14dz2              0.571732       0.618723

                          4       1    2s                0.852188       0.632138

                          5       1   17fx3              1.068436       1.708592
[...]
 mp_sync                            827  9.5    1.324    2.404    1.324    2.404
 integrate_vhg0_rspace               77  8.0    0.062    0.087    2.144    2.150
 mp_sum_d                          4621  6.7    1.885    2.133    1.885    2.133
 compute_GW_self_energy             100  7.0    0.001    0.001    2.013    2.047
 xc_functional_eval                 380 10.7    0.001    0.001    1.219    1.958
 pbe_lda_eval                       380 11.7    1.219    1.957    1.219    1.957
 compute_GW_self_energy_deep        100  8.0    0.924    0.943    1.811    1.846
 parallel_gemm_fm                   372  8.4    0.000    0.000    1.798    1.835
 parallel_gemm_fm_cosma             372  9.4    1.798    1.835    1.798    1.835
 mp_waitall_1                     36978 12.0    0.996    1.365    0.996    1.365
 create_hermitian_form_of_ABBA        1  8.0    0.000    0.000    1.328    1.333
 transfer_pw2rs_30                   77 12.0    0.696    0.707    1.216    1.298
 calculate_vxc_atom                  77  8.0    0.041    0.130    1.257    1.258
 powell_optimize                 763571 11.0    1.100    1.206    1.100    1.206
 diagonalize_C                        1  8.0    0.000    0.000    1.143    1.145
 cp_fm_power                          2  7.5    0.026    0.030    1.124    1.130
 transfer_rs2pw_90                   77  9.0    0.170    0.198    0.755    1.100
 pw_scatter_p                       841 12.1    1.047    1.098    1.047    1.098
 qs_scf_new_mos                      76  5.0    0.001    0.001    1.060    1.096
 gaVxcgb_GC                         152  9.0    0.089    1.077    0.089    1.077
 transfer_pw2rs_90                   77 12.0    0.150    0.180    0.858    1.066
 calc_screening_functions             1 10.0    0.406    0.415    1.021    1.057
 pw_derive                          687 11.3    0.879    0.894    0.879    0.894
 mp_sum_dm                         4239  7.7    0.781    0.881    0.781    0.881
 calculate_rho_atom                 308  9.0    0.355    0.869    0.355    0.869
 transfer_rs2pw_30                   77  9.0    0.305    0.322    0.809    0.843
 calc_pair_dist_radii                 1 10.0    0.254    0.258    0.738    0.807
 pw_gather_p                        767 11.8    0.768    0.799    0.768    0.799
 pw_copy                           1150 10.6    0.770    0.794    0.770    0.794
 cp2k_distribution_to_z_slices       77  9.0    0.282    0.315    0.729    0.754
 mp2_ri_gpw_compute_in                1  5.0    0.000    0.000    0.733    0.733
 eigensolver_symm                    77  6.0    0.005    0.006    0.728    0.730
 mp_sendrecv_dv                   12166 10.0    0.671    0.708    0.671    0.708
 rs_gather_matrices                  77 10.0    0.002    0.003    0.594    0.689
 grid_integrate_task_list            77 10.0    0.087    0.669    0.087    0.669
 mp_isend_dv                      13353 11.8    0.221    0.661    0.221    0.661
 mp_sum_dv                        10601 10.3    0.588    0.645    0.588    0.645
 mp2_ri_gpw_compute_in_loop           1  6.0    0.000    0.000    0.606    0.606
 compute_vec_Sigma_x_minus_vxc_       1  4.0    0.000    0.000    0.565    0.565
 rs_grid_zero                       387 11.2    0.536    0.555    0.536    0.555
 pw_copy_to_array                   767 11.8    0.440    0.550    0.440    0.550
 rpa_num_int_RPA_matrix_operati     100  7.0    0.000    0.001    0.517    0.518
 contract_B_L                         4  7.0    0.001    0.002    0.393    0.515
 pw_poisson_set                      78  8.9    0.001    0.001    0.504    0.511
 fft_wrap_pw1pw2_90                 154 10.5    0.023    0.024    0.485    0.498
 pw_copy_from_array                 841 12.1    0.380    0.472    0.380    0.472
 mp2_eri_3c_integrate                 1  7.0    0.001    0.002    0.178    0.426
 integrate_set_3c                  2670  8.0    0.159    0.391    0.177    0.425
 mp_cart_create                     573  9.9    0.285    0.405    0.285    0.406
 mp_isend_dm3                      2784 11.5    0.066    0.398    0.066    0.398
 dbt_pgrid_create_expert             84 10.8    0.000    0.000    0.264    0.385
 calc_mat_Q                         100  8.0    0.000    0.000    0.376    0.381
 contract_S_to_Q                    100  9.0    0.000    0.000    0.374    0.379
 pw_integral_ab_c1d_c1d_gs           77  9.0    0.334    0.338    0.360    0.367
 pw_axpy                            765  9.3    0.327    0.340    0.327    0.340
 pw_poisson_rebuild                  77  9.0    0.000    0.000    0.314    0.336
 ps_wavelet_create                    1 10.0    0.000    0.000    0.314    0.336
 RS_z_slice_distribution              1 11.0    0.251    0.283    0.314    0.336
 qs_energies_init_hamiltonians        1  3.0    0.000    0.000    0.319    0.319
 build_core_hamiltonian_matrix        1  4.0    0.000    0.000    0.316    0.317
 overlap_condnum                      1  5.0    0.000    0.000    0.314    0.316
 arnoldi_conjugate_gradient           5  6.0    0.006    0.008    0.295    0.295
 calculate_rho_atom_coeff            77  6.0    0.035    0.042    0.287    0.287
 transfer_pw2rs_10                   77 12.0    0.122    0.128    0.267    0.279
 transfer_rs2pw_10                   77  9.0    0.076    0.078    0.243    0.253
 calculate_dm_sparse                 76  6.0    0.000    0.000    0.208    0.233
 cp_dbcsr_plus_fm_fm_t               76  7.0    0.001    0.001    0.207    0.233
 mp2_main_alloc_hfx                   1  4.0    0.125    0.226    0.125    0.226
 init_scf_run                         1  3.0    0.000    0.000    0.225    0.225
 cp_fm_cholesky_decompose           102  9.0    0.174    0.216    0.174    0.216
 scf_env_initial_rho_setup            1  4.0    0.000    0.000    0.214    0.214
 pw_zero                            458 10.3    0.197    0.209    0.197    0.209
 mp_sum_i                            19  9.5    0.101    0.202    0.101    0.202
 restraint_control                    1  2.0    0.000    0.000    0.101    0.202
 cp_fm_cholesky_invert              101  8.0    0.184    0.188    0.184    0.188
 mp_irecv_dv                      13301 11.8    0.019    0.186    0.019    0.186
 qs_init_subsys                       1  2.0    0.001    0.001    0.178    0.178
 qs_env_setup                         1  3.0    0.000    0.000    0.174    0.175
 dbcsr_sym_matrix_vector_mult      2055  7.0    0.015    0.016    0.167    0.175
 qs_env_rebuild_pw_env                2  3.5    0.000    0.000    0.174    0.175
 pw_env_rebuild                       1  5.0    0.000    0.000    0.174    0.175
 dbcsr_multiply_generic             145  8.1    0.004    0.004    0.150    0.174
 Vh_1c_gg_integrals                  77  8.0    0.013    0.108    0.164    0.174
 mp_sum_l                          1061  6.4    0.141    0.173    0.141    0.173
 copy_dbcsr_to_fm                   119  6.7    0.002    0.002    0.149    0.166
 dbcsr_complete_redistribute        275  8.5    0.010    0.012    0.160    0.164
 integrate_four_center_load          77 10.0    0.000    0.000    0.118    0.159
 hfx_load_balance                     1 11.0    0.000    0.000    0.118    0.158
 pw_grid_setup                        4  6.0    0.000    0.000    0.155    0.156
 pw_grid_setup_internal               4  7.0    0.002    0.003    0.155    0.156
 write_mo_set_to_restart             76  5.0    0.002    0.134    0.127    0.149
 hfx_load_balance_range               1 12.0    0.000    0.000    0.105    0.146
 update_ks_atom                      77  8.0    0.030    0.052    0.121    0.138
 compute_Erpa_by_freq_int           100  8.0    0.001    0.001    0.133    0.133
 fft_wrap_pw1pw2_30                 154 10.5    0.004    0.004    0.128    0.130
 write_mo_set_low                     4  6.0    0.000    0.000    0.124    0.126
 cp_fm_write_unformatted              4  7.0    0.124    0.126    0.124    0.126
 get_2c_integrals                     1  6.0    0.000    0.000    0.096    0.126
 dbt_total                            8  8.0    0.000    0.000    0.123    0.123
 dbt_contract                         4  9.0    0.000    0.000    0.111    0.112
 pw_grid_sort                         4  8.0    0.080    0.081    0.109    0.110
 create_qs_kind_set                   1  2.0    0.000    0.000    0.108    0.109
 read_qs_kind                         4  3.0    0.038    0.061    0.108    0.109
 dbcsr_add_d                       3144  7.0    0.001    0.002    0.019    0.107
 dbcsr_add_anytype                 3144  8.0    0.002    0.012    0.018    0.106
 mp_max_i                           600  2.9    0.089    0.104    0.089    0.104
 calculate_rho0_atom                308  9.0    0.102    0.103    0.102    0.103
 mp_bcast_dm                       2772  9.0    0.091    0.098    0.091    0.098
 fm_general_add_bse                   5 10.2    0.000    0.000    0.089    0.096
 cp_fm_to_fm_submat_general         112 10.1    0.087    0.094    0.087    0.094
 copy_fm_to_dbcsr                   156  8.1    0.000    0.000    0.088    0.091
 multiply_cannon                    145  9.1    0.007    0.007    0.065    0.089
 dbcsr_desymmetrize_deep            121  7.6    0.003    0.003    0.072    0.087
 dbt_tas_multiply                     8 11.5    0.000    0.000    0.086    0.086
 dbt_tas_total                        8 12.5    0.001    0.003    0.086    0.086
 cholesky_decomp                      1  7.0    0.000    0.000    0.043    0.086
 cp_fm_syrk                           3  7.0    0.081    0.082    0.081    0.082
 create_B                             1  8.0    0.000    0.000    0.075    0.081
 create_A                             1  8.0    0.002    0.003    0.080    0.081
 multiply_cannon_loop               145 10.1    0.005    0.005    0.050    0.073
 scale_and_distribute               154 10.0    0.061    0.072    0.061    0.072
 dbcsr_finalize                    5084 10.8    0.006    0.019    0.025    0.071
 parser_read_line                 17033  4.0    0.003    0.003    0.070    0.071
 parser_read_line_low                29  5.0    0.001    0.015    0.067    0.068
 broadcast_input_information         29  6.0    0.005    0.005    0.066    0.067
 mp_alltoall_i11v                   946  9.3    0.065    0.066    0.065    0.066
 dbcsr_col_vec_to_rep_row          2055  8.0    0.007    0.007    0.059    0.066
 fft_wrap_pw1pw2_10                 154 10.5    0.001    0.001    0.062    0.064
 make_m2s                           290  9.1    0.003    0.003    0.061    0.064
 pw_scale                           305  9.5    0.041    0.064    0.041    0.064
 cp_fm_uplo_to_full                 186  8.4    0.045    0.063    0.045    0.063
 mp_isendrecv_dv                  24332 12.0    0.034    0.062    0.034    0.062
 scf_post_calculation_gpw             1  3.0    0.000    0.000    0.059    0.059
 write_available_results              1  4.0    0.000    0.000    0.059    0.059
 write_mo_free_results                1  5.0    0.004    0.005    0.059    0.059
 mp_irecv_dm3                      2784 11.5    0.008    0.059    0.008    0.059
 compute_2c_integrals                 1  7.0    0.000    0.000    0.010    0.058
 mp_alltoall_i22                    396  9.2    0.038    0.055    0.038    0.055
 self_consistency_check              76  5.0    0.000    0.000    0.031    0.052
 cp_sm_mix                           76  6.0    0.000    0.000    0.031    0.051
 dbcsr_rep_row_to_rep_col_vec      2055  8.0    0.005    0.006    0.032    0.051
 mp_max_d                            78  6.9    0.030    0.051    0.030    0.051
 mp_bcast_i_src                     116  7.0    0.047    0.051    0.047    0.051
 postprocess_bse                      1  9.0    0.000    0.000    0.048    0.051
 mp_rank_compare                   1608 12.9    0.046    0.048    0.046    0.048
 create_integ_mat                     4  6.0    0.001    0.001    0.045    0.047
 multiply_cannon_metrocomm3        1684 11.1    0.002    0.002    0.021    0.046
 array2fm                             4  7.0    0.000    0.000    0.037    0.045
 mp_bcast_dv                       2055  9.0    0.039    0.045    0.039    0.045
 cp_fm_symm                          77  7.0    0.041    0.044    0.041    0.044
 vxc_of_r_new                       304  9.0    0.001    0.006    0.005    0.042
 integrate_four_center_dist_KS       77 10.0    0.006    0.007    0.038    0.040
 dbcsr_iterator_start             27178  8.9    0.021    0.031    0.025    0.039
 dbt_tas_dbm                          8 13.5    0.000    0.000    0.038    0.038
 integrate_four_center_getP          77 10.0    0.006    0.006    0.035    0.037
 mp_bcast_b_src                     159  7.5    0.024    0.035    0.024    0.035
 abc_contract                      2670  9.0    0.017    0.034    0.017    0.034
 invert_mat                           1  7.0    0.000    0.000    0.018    0.033
 cp_fm_triangular_invert              1  8.0    0.018    0.033    0.018    0.033
 make_images                        290 10.1    0.006    0.007    0.031    0.033
 dbcsr_merge_all                   4021 11.5    0.009    0.025    0.013    0.033
 dbt_tas_mm_1N                        8 14.5    0.000    0.000    0.025    0.032
 dbm_multiply                         8 15.5    0.025    0.032    0.025    0.032
 sort_shells                          4  9.0    0.029    0.031    0.029    0.031
 grep_Lcols                           1  7.0    0.000    0.000    0.025    0.030
 fm_general_add_bse_1_setup           5 11.2    0.028    0.030    0.028    0.030
 mp_sendrecv_dm2                     93  7.2    0.020    0.030    0.020    0.030
 grep_Lcols_comm                      1  8.0    0.000    0.000    0.025    0.030
 hybrid_alltoall_any                411 11.0    0.004    0.004    0.028    0.030
 mp_comm_split_direct                48 14.5    0.016    0.027    0.016    0.027
 multiply_cannon_metrocomm1        1684 11.1    0.001    0.001    0.005    0.027
 mixing_init                          1  5.0    0.026    0.027    0.027    0.027
 dbcsr_copy                        9078  7.7    0.015    0.016    0.025    0.027
 rs_scatter_matrices                 77  7.0    0.001    0.001    0.026    0.026
 mp_sendrecv_im2                     86  7.2    0.005    0.026    0.005    0.026
 dbt_tas_estimate_result_nze          4 12.0    0.001    0.003    0.023    0.026
 dbcsr_work_create                 4756 10.6    0.005    0.017    0.008    0.026
 dbt_copy                            12 10.0    0.000    0.000    0.022    0.025
 fm_general_add_bse_5_comm_buff       5 11.2    0.000    0.000    0.017    0.025
 communicate_buffer                   5 12.2    0.000    0.000    0.017    0.025
 mp2_main_free_hfx                    1  4.0    0.014    0.024    0.014    0.024
 xc_pw_smooth                        76 10.0    0.000    0.000    0.022    0.024
 fm_general_add_bse_4_buf_from_       1 10.0    0.016    0.023    0.016    0.023
 get_oscillator_strengths             1 10.0    0.000    0.000    0.022    0.022
 array2fm_info                        4  8.0    0.016    0.022    0.016    0.022
 hirshfeld_integration                1  6.0    0.001    0.007    0.022    0.022
 get_multipoles_mo                    1 10.0    0.000    0.000    0.020    0.022
 external_control                    77  5.0    0.000    0.018    0.021    0.021
 dbt_distribution_new_expert         76 10.1    0.000    0.001    0.020    0.021
 offload_free_buffer                 85  8.4    0.013    0.020    0.013    0.020
 mp_maxloc_dv                      1511  1.0    0.018    0.020    0.018    0.020
 dbcsr_iterator_stop              27178  8.9    0.012    0.017    0.015    0.020
 dbcsr_crop_matrix                  456 10.0    0.002    0.002    0.019    0.020
 dbcsr_create_new                 12208  9.1    0.014    0.014    0.018    0.019
 fm_general_add_bse_4_buf_from_       1 10.0    0.016    0.019    0.016    0.019
 cp_fm_redistribute_start            82  8.0    0.000    0.000    0.011    0.018
 calculate_hirshfeld_normalizat       1  6.0    0.001    0.007    0.017    0.018
 dbt_tas_distribution_new            94 11.7    0.009    0.010    0.017    0.018
 dbcsr_work_destroy_all            4756 11.6    0.004    0.013    0.006    0.018
 dbt_reshape                          8 11.5    0.003    0.005    0.014    0.017
 dbt_remap                            8 10.0    0.001    0.001    0.017    0.017
 array2fm_fill                        4  8.0    0.002    0.003    0.008    0.017
 compute_max_radius                   1  6.0    0.014    0.016    0.014    0.016
 mult_B_with_W                        1  8.0    0.000    0.000    0.015    0.016
 mp_bcast_am_src                     29  7.0    0.013    0.015    0.014    0.016
 mp_cart_sub                        242  8.6    0.016    0.016    0.016    0.016
 multiply_cannon_metrocomm4        1539 11.1    0.002    0.003    0.005    0.016
 dbcsr_copy_submatrix               456 11.0    0.002    0.002    0.014    0.015
 mp_sum_iv                          187  9.9    0.012    0.015    0.012    0.015
 mulliken_population_analysis         1  6.0    0.000    0.000    0.015    0.015
 array2fm_buffer_send                 4  8.0    0.011    0.014    0.011    0.014
 mp_wait                            109  9.0    0.006    0.014    0.006    0.014
 dbt_tas_replicate                    8 13.5    0.003    0.004    0.010    0.014
 pw_grid_assign                       4  8.0    0.012    0.013    0.014    0.014
 make_images_sizes                  290 11.1    0.000    0.000    0.011    0.013
 mp_alltoall_i44                    290 12.1    0.011    0.013    0.011    0.013
 mp_bcast_av                        756  1.0    0.004    0.005    0.010    0.013
 dbt_split_blocks_generic            20  8.8    0.002    0.002    0.013    0.013
 create_fast_col_vec_access        4110  8.0    0.008    0.009    0.012    0.013
 dbcsr_data_new                   46700 11.0    0.007    0.013    0.007    0.013
 pw_grid_remap                        4  8.0    0.003    0.003    0.010    0.013
 Q_trace_and_add_unit_matrix        100  8.0    0.000    0.000    0.008    0.012
 multiply_cannon_multrec           1684 11.1    0.010    0.012    0.010    0.012
 create_fast_row_vec_access        4110  8.0    0.007    0.008    0.012    0.012
 dbt_tas_create_split                44 13.2    0.000    0.000    0.011    0.011
 dbt_tas_create_split_rows_or_c      44 14.2    0.000    0.000    0.011    0.011
 mp_waitall_2                        50 15.8    0.008    0.011    0.008    0.011
 dbcsr_data_release               77595 10.5    0.007    0.011    0.007    0.011
 dbt_communicate_buffer               8 12.5    0.000    0.000    0.010    0.011
 dbcsr_sym_matrix_vector_mult_l    2055  8.0    0.004    0.005    0.009    0.011
 dbt_create_new                      40  9.5    0.000    0.000    0.010    0.010
 mp_sum_im3                           4  9.0    0.008    0.010    0.008    0.010
 mp_sum_im                         4017 13.0    0.008    0.010    0.008    0.010
 hfx_create                           1  2.0    0.009    0.009    0.009    0.009
 calc_fm_mat_S_rpa                  100  9.0    0.002    0.009    0.002    0.009
 dbcsr_scale_anytype               3145  9.0    0.002    0.003    0.008    0.009
 -------------------------------------------------------------------------------

 The number of warnings for this run is : 1
 
 -------------------------------------------------------------------------------
  **** **** ******  **  PROGRAM ENDED AT                 2025-05-05 04:00:56.471
 ***** ** ***  *** **   PROGRAM RAN ON                                  n2cn0307
 **    ****   ******    PROGRAM RAN BY                                  metdyn02
 ***** **    ** ** **   PROGRAM PROCESS ID                               4156778
  **** **  *******  **  PROGRAM STOPPED IN /scratch/hpc-prf-metdyn/metdyn02_Remi
                                           /10_MOL/05_MOL/aUKBqsEOTmq69kFe5R_nOg
                                           /5k_set_final_qzvp/JUYGUF/SZV/GW+BSE/
                                           1e-4
