 DBCSR| CPU Multiplication driver                                           XSMM (U)
 DBCSR| Multrec recursion limit                                              512 (U)
 DBCSR| Multiplication stack size                                           1000 (D)
 DBCSR| Maximum elements for images                                    UNLIMITED (U)
 DBCSR| Multiplicative factor virtual images                                   1 (U)
 DBCSR| Use multiplication densification                                       T (D)
 DBCSR| Multiplication size stacks                                             3 (U)
 DBCSR| Use memory pool for CPU allocation                                     F (U)
 DBCSR| Number of 3D layers                                               SINGLE (U)
 DBCSR| Use MPI memory allocation                                              F (U)
 DBCSR| Use RMA algorithm                                                      F (U)
 DBCSR| Use Communication thread                                               T (U)
 DBCSR| Communication thread load                                             75 (D)
 DBCSR| MPI: My process id                                                     0
 DBCSR| MPI: Number of processes                                              16
 DBCSR| OMP: Current number of threads                                         4
 DBCSR| OMP: Max number of threads                                             4
 DBCSR| Split modifier for TAS multiplication algorithm                  1.0E+00 (U)


  **** **** ******  **  PROGRAM STARTED AT               2025-07-01 15:10:37.547
 ***** ** ***  *** **   PROGRAM STARTED ON                              n2cn0652
 **    ****   ******    PROGRAM STARTED BY                              metdyn02
 ***** **    ** ** **   PROGRAM PROCESS ID                               1308556
  **** **  *******  **  PROGRAM STARTED IN /scratch/hpc-prf-metdyn/metdyn02_Remi
                                           /10_MOL/05_MOL/W4-11+ALK/n2h4/mini-SZ
                                           V/TDDFT/RILIM

 CP2K| version string:                 CP2K version 2025.1 (Development Version)
 CP2K| source code revision number:                                  git:400017f
 CP2K| cp2kflags: omp libint fftw3 libxc libgrpp elpa parallel scalapack mpi_f08
 CP2K|             cosma xsmm plumed2 spglib libvori libbqb libvdwxc hdf5
 CP2K| is freely available from                            https://www.cp2k.org/
 CP2K| Program compiled at                         Thu Jun 26 12:02:16 CEST 2025
 CP2K| Program compiled on                                              n2login1
 CP2K| Program compiled for                                                local
 CP2K| Data directory path    /opt/software/pc2/EB-SW/software/CP2K/2024.1-foss-
 CP2K| Input file name                                                    GW.inp

 GLOBAL| Force Environment number                                              1
 GLOBAL| Basis set file name            /scratch/hpc-prf-metdyn/metdyn02_Remi/BA
 GLOBAL| Potential file name            /pc2/groups/hpc-prf-metdyn/metdyn02_Remi
 GLOBAL| MM Potential file name                                     MM_POTENTIAL
 GLOBAL| Coordinate file name                                      __STD_INPUT__
 GLOBAL| Method name                                                        CP2K
 GLOBAL| Project name                                                       MoS2
 GLOBAL| Run type                                                         ENERGY
 GLOBAL| FFT library                                                       FFTW3
 GLOBAL| Diagonalization library                                            ELPA
 GLOBAL| Cholesky decomposition library                                ScaLAPACK
 GLOBAL| DGEMM library                                                      BLAS
 GLOBAL| Minimum number of eigenvectors for ELPA usage                        16
 GLOBAL| Orthonormality check for eigenvectors                          DISABLED
 GLOBAL| Matrix multiplication library                                     COSMA
 GLOBAL| All-to-all communication in single precision                          F
 GLOBAL| FFTs using library dependent lengths                                  F
 GLOBAL| Grid backend                                                       AUTO
 GLOBAL| Global print level                                               MEDIUM
 GLOBAL| MPI I/O enabled                                                       T
 GLOBAL| Total number of message passing processes                            16
 GLOBAL| Number of threads for this process                                    4
 GLOBAL| This output is from process                                           0
 GLOBAL| OpenMP stack size per thread (OMP_STACKSIZE)                    default
 GLOBAL| CPU model name                          AMD EPYC 7763 64-Core Processor
 GLOBAL| CPUID                                                              1002

 MEMORY| system memory details [Kb]
 MEMORY|                        rank 0           min           max       average
 MEMORY| MemTotal            263897600     263897592     263897600     263897596
 MEMORY| MemFree             244052056     244052056     249294328     246673192
 MEMORY| Buffers                125408        125408        125576        125492
 MEMORY| Cached               13315892       8259932      13315892      10787912
 MEMORY| Slab                  1754964       1719956       1754964       1737460
 MEMORY| SReclaimable           453368        453368        482816        468092
 MEMORY| MemLikelyFree       257946724     257946724     258162652     258054688


 *** Fundamental physical constants (SI units) ***

 *** Literature: B. J. Mohr and B. N. Taylor,
 ***             CODATA recommended values of the fundamental physical
 ***             constants: 2006, Web Version 5.1
 ***             http://physics.nist.gov/constants

 Speed of light in vacuum [m/s]                             2.99792458000000E+08
 Magnetic constant or permeability of vacuum [N/A**2]       1.25663706143592E-06
 Electric constant or permittivity of vacuum [F/m]          8.85418781762039E-12
 Planck constant (h) [J*s]                                  6.62606896000000E-34
 Planck constant (h-bar) [J*s]                              1.05457162825177E-34
 Elementary charge [C]                                      1.60217648700000E-19
 Electron mass [kg]                                         9.10938215000000E-31
 Electron g factor [ ]                                     -2.00231930436220E+00
 Proton mass [kg]                                           1.67262163700000E-27
 Fine-structure constant                                    7.29735253760000E-03
 Rydberg constant [1/m]                                     1.09737315685270E+07
 Avogadro constant [1/mol]                                  6.02214179000000E+23
 Boltzmann constant [J/K]                                   1.38065040000000E-23
 Atomic mass unit [kg]                                      1.66053878200000E-27
 Bohr radius [m]                                            5.29177208590000E-11

 *** Conversion factors ***

 [u] -> [a.u.]                                              1.82288848426455E+03
 [Angstrom] -> [Bohr] = [a.u.]                              1.88972613288564E+00
 [a.u.] = [Bohr] -> [Angstrom]                              5.29177208590000E-01
 [a.u.] -> [s]                                              2.41888432650478E-17
 [a.u.] -> [fs]                                             2.41888432650478E-02
 [a.u.] -> [J]                                              4.35974393937059E-18
 [a.u.] -> [N]                                              8.23872205491840E-08
 [a.u.] -> [K]                                              3.15774647902944E+05
 [a.u.] -> [kJ/mol]                                         2.62549961709828E+03
 [a.u.] -> [kcal/mol]                                       6.27509468713739E+02
 [a.u.] -> [Pa]                                             2.94210107994716E+13
 [a.u.] -> [bar]                                            2.94210107994716E+08
 [a.u.] -> [atm]                                            2.90362800883016E+08
 [a.u.] -> [eV]                                             2.72113838565563E+01
 [a.u.] -> [Hz]                                             6.57968392072181E+15
 [a.u.] -> [1/cm] (wave numbers)                            2.19474631370540E+05
 [a.u./Bohr**2] -> [1/cm]                                   5.14048714338585E+03
 

 CELL_TOP| Volume [angstrom^3]:                                     27000.000000
 CELL_TOP| Vector a [angstrom    30.000     0.000     0.000   |a| =    30.000000
 CELL_TOP| Vector b [angstrom     0.000    30.000     0.000   |b| =    30.000000
 CELL_TOP| Vector c [angstrom     0.000     0.000    30.000   |c| =    30.000000
 CELL_TOP| Angle (b,c), alpha [degree]:                                90.000000
 CELL_TOP| Angle (a,c), beta  [degree]:                                90.000000
 CELL_TOP| Angle (a,b), gamma [degree]:                                90.000000
 CELL_TOP| Numerically orthorhombic:                                         YES
 CELL_TOP| Periodicity                                                      NONE

 GENERATE|  Preliminary Number of Bonds generated:                             0
 GENERATE|  Achieved consistency in connectivity generation.

 CELL| Volume [angstrom^3]:                                         27000.000000
 CELL| Vector a [angstrom]:      30.000     0.000     0.000   |a| =    30.000000
 CELL| Vector b [angstrom]:       0.000    30.000     0.000   |b| =    30.000000
 CELL| Vector c [angstrom]:       0.000     0.000    30.000   |c| =    30.000000
 CELL| Angle (b,c), alpha [degree]:                                    90.000000
 CELL| Angle (a,c), beta  [degree]:                                    90.000000
 CELL| Angle (a,b), gamma [degree]:                                    90.000000
 CELL| Numerically orthorhombic:                                             YES
 CELL| Periodicity                                                          NONE

 CELL_REF| Volume [angstrom^3]:                                     27000.000000
 CELL_REF| Vector a [angstrom    30.000     0.000     0.000   |a| =    30.000000
 CELL_REF| Vector b [angstrom     0.000    30.000     0.000   |b| =    30.000000
 CELL_REF| Vector c [angstrom     0.000     0.000    30.000   |c| =    30.000000
 CELL_REF| Angle (b,c), alpha [degree]:                                90.000000
 CELL_REF| Angle (a,c), beta  [degree]:                                90.000000
 CELL_REF| Angle (a,b), gamma [degree]:                                90.000000
 CELL_REF| Numerically orthorhombic:                                         YES
 CELL_REF| Periodicity                                                      NONE

 *******************************************************************************
 *******************************************************************************
 **                                                                           **
 **     #####                         ##              ##                      **
 **    ##   ##            ##          ##              ##                      **
 **   ##     ##                       ##            ######                    **
 **   ##     ##  ##   ##  ##   #####  ##  ##   ####   ##    #####    #####    **
 **   ##     ##  ##   ##  ##  ##      ## ##   ##      ##   ##   ##  ##   ##   **
 **   ##  ## ##  ##   ##  ##  ##      ####     ###    ##   ######   ######    **
 **    ##  ###   ##   ##  ##  ##      ## ##      ##   ##   ##       ##        **
 **     #######   #####   ##   #####  ##  ##  ####    ##    #####   ##        **
 **           ##                                                    ##        **
 **                                                                           **
 **                                                ... make the atoms dance   **
 **                                                                           **
 **            Copyright (C) by CP2K developers group (2000-2025)             **
 **                      J. Chem. Phys. 152, 194103 (2020)                    **
 **                                                                           **
 *******************************************************************************

 DFT| Spin restricted Kohn-Sham (RKS) calculation                            RKS
 DFT| Multiplicity                                                             1
 DFT| Number of spin states                                                    1
 DFT| Charge                                                                   0
 DFT| Self-interaction correction (SIC)                                       NO
 DFT| Cutoffs: density                                              1.000000E-10
 DFT|          gradient                                             1.000000E-10
 DFT|          tau                                                  1.000000E-10
 DFT|          cutoff_smoothing_range                               0.000000E+00
 DFT| XC density smoothing                                                  NONE
 DFT| XC derivatives                                                          PW

 FUNCTIONAL| PBE:
 FUNCTIONAL| J.P.Perdew, K.Burke, M.Ernzerhof, Phys. Rev. Letter, vol. 77, n 18,
 FUNCTIONAL|  pp. 3865-3868, (1996)sx=0.750sc=1.000{spin unpolarized}           


 QS| Method:                                                                GAPW
 QS| Density plane wave grid type                        NON-SPHERICAL FULLSPACE
 QS| Number of grid levels:                                                    4
 QS| Density cutoff [a.u.]:                                                250.0
 QS| Multi grid cutoff [a.u.]: 1) grid level                               250.0
 QS|                           2) grid level                                83.3
 QS|                           3) grid level                                27.8
 QS|                           4) grid level                                 9.3
 QS| Grid level progression factor:                                          3.0
 QS| Relative density cutoff [a.u.]:                                        50.0
 QS| Interaction thresholds: eps_pgf_orb:                                1.0E-12
 QS|                         eps_filter_matrix:                          0.0E+00
 QS|                         eps_core_charge:                            1.0E-14
 QS|                         eps_rho_gspace:                             1.0E-12
 QS|                         eps_rho_rspace:                             1.0E-12
 QS|                         eps_gvg_rspace:                             1.0E-06
 QS|                         eps_ppl:                                    1.0E-02
 QS|                         eps_ppnl:                                   1.0E-08
 QS| GAPW|      One center basis from orbital basis primitives
 QS| GAPW|                   eps_fit:                                    1.0E-04
 QS| GAPW|                   eps_iso:                                    1.0E-12
 QS| GAPW|                   eps_svd:                                    1.0E-08
 QS| GAPW|                   eps_cpc:                                    1.0E-12
 QS| GAPW|   atom-r-grid: quadrature:                                     GC_LOG
 QS| GAPW|      atom-s-grid:  max l :                                          2
 QS| GAPW|      max_l_rho0 :                                                   2


 ATOMIC KIND INFORMATION

  1. Atomic kind: N                                     Number of atoms:       2

     Orbital Basis Set                                    aug-SZV-MOLOPT-ae-mini

       Number of orbital shell sets:                                           2
       Number of orbital shells:                                               5
       Number of primitive Cartesian functions:                                7
       Number of Cartesian basis functions:                                    9
       Number of spherical basis functions:                                    9
       Norm type:                                                              2

       Normalised Cartesian orbitals:

                        Set   Shell   Orbital            Exponent    Coefficient

                          1       1    1s                0.112012       0.000000
                                                         0.285714       0.194997
                                                         0.878496       0.258372
                                                         3.780455      -0.193164

                          1       2    2s                0.112012      -0.247059
                                                         0.285714       0.355178
                                                         0.878496       0.105643
                                                         3.780455      -0.000189

                          1       3    2px               0.112012       0.000000
                                                         0.285714       0.116706
                                                         0.878496       0.736703
                                                         3.780455       1.171552
                          1       3    2py               0.112012       0.000000
                                                         0.285714       0.116706
                                                         0.878496       0.736703
                                                         3.780455       1.171552
                          1       3    2pz               0.112012       0.000000
                                                         0.285714       0.116706
                                                         0.878496       0.736703
                                                         3.780455       1.171552

                          1       4    3px               0.112012       0.096580
                                                         0.285714      -0.017996
                                                         0.878496       0.000162
                                                         3.780455       0.000013
                          1       4    3py               0.112012       0.096580
                                                         0.285714      -0.017996
                                                         0.878496       0.000162
                                                         3.780455       0.000013
                          1       4    3pz               0.112012       0.096580
                                                         0.285714      -0.017996
                                                         0.878496       0.000162
                                                         3.780455       0.000013

                          2       1    1s               99.106168       3.454863
                                                        18.052312       3.341413
                                                         4.885660       1.041372

     RI Auxiliary Basis Set             RI_aug-SZV-MOLOPT-ae-mini_N_RI_047_s_p_d

       Number of orbital shell sets:                                          17
       Number of orbital shells:                                              17
       Number of primitive Cartesian functions:                               17
       Number of Cartesian basis functions:                                   52
       Number of spherical basis functions:                                   47
       Norm type:                                                              2

       Normalised Cartesian orbitals:

                        Set   Shell   Orbital            Exponent    Coefficient

                          1       1    1s                0.280030       0.274355

                          2       1    8px               0.280030       0.290366
                          2       1    8py               0.280030       0.290366
                          2       1    8pz               0.280030       0.290366

                          3       1   13dx2              0.280030       0.177426
                          3       1   13dxy              0.280030       0.307311
                          3       1   13dxz              0.280030       0.307311
                          3       1   13dy2              0.280030       0.177426
                          3       1   13dyz              0.280030       0.307311
                          3       1   13dz2              0.280030       0.177426

                          4       1    2s                0.470510       0.404890

                          5       1    9px               0.609890       0.768254
                          5       1    9py               0.609890       0.768254
                          5       1    9pz               0.609890       0.768254

                          6       1   14dx2              0.609890       0.692787
                          6       1   14dxy              0.609890       1.199942
                          6       1   14dxz              0.609890       1.199942
                          6       1   14dy2              0.609890       0.692787
                          6       1   14dyz              0.609890       1.199942
                          6       1   14dz2              0.609890       0.692787

                          7       1    3s                0.790558       0.597531

                          8       1    4s                1.328308       0.881828

                          9       1   15dx2              1.328308       2.705093
                          9       1   15dxy              1.328308       4.685358
                          9       1   15dxz              1.328308       4.685358
                          9       1   15dy2              1.328308       2.705093
                          9       1   15dyz              1.328308       4.685358
                          9       1   15dz2              1.328308       2.705093

                         10       1   10px               1.328308       2.032654
                         10       1   10py               1.328308       2.032654
                         10       1   10pz               1.328308       2.032654

                         11       1    5s                2.231842       1.301391

                         12       1   11px               2.892982       5.378018
                         12       1   11py               2.892982       5.378018
                         12       1   11pz               2.892982       5.378018

                         13       1   16dx2              2.892982      10.562447
                         13       1   16dxy              2.892982      18.294694
                         13       1   16dxz              2.892982      18.294694
                         13       1   16dy2              2.892982      10.562447
                         13       1   16dyz              2.892982      18.294694
                         13       1   16dz2              2.892982      10.562447

                         14       1    6s                3.749973       1.920575

                         15       1   17dx2              6.300758      41.242682
                         15       1   17dxy              6.300758      71.434420
                         15       1   17dxz              6.300758      71.434420
                         15       1   17dy2              6.300758      41.242682
                         15       1   17dyz              6.300758      71.434420
                         15       1   17dz2              6.300758      41.242682

                         16       1    7s                6.300758       2.834358

                         17       1   12px               6.300758      14.229221
                         17       1   12py               6.300758      14.229221
                         17       1   12pz               6.300758      14.229221

       Atomic covalent radius [Angstrom]:                                  0.750

       Atomic van der Waals radius [Angstrom]:                             1.550

     The atoms of this atomic kind are PAW atoms (GAPW):
       Hard Gaussian function radius:                                      1.512
       Rho0 radius:                                                        1.512
       Maximum GTO radius used for PAW projector construction:            24.566

     GAPW Soft Basis Set                             aug-SZV-MOLOPT-ae-mini_soft

       Number of orbital shell sets:                                           2
       Number of orbital shells:                                               5
       Number of primitive Cartesian functions:                                4
       Number of Cartesian basis functions:                                    9
       Number of spherical basis functions:                                    9
       Norm type:                                                              2

       Normalised Cartesian orbitals:

                        Set   Shell   Orbital            Exponent    Coefficient

                          1       1    1s                0.112012       0.000000
                                                         0.285714       0.194997
                                                         0.878496       0.258372
                                                         3.780455      -0.193164

                          1       2    2s                0.112012      -0.247059
                                                         0.285714       0.355178
                                                         0.878496       0.105643
                                                         3.780455      -0.000189

                          1       3    2px               0.112012       0.000000
                                                         0.285714       0.116706
                                                         0.878496       0.736703
                                                         3.780455       1.171552
                          1       3    2py               0.112012       0.000000
                                                         0.285714       0.116706
                                                         0.878496       0.736703
                                                         3.780455       1.171552
                          1       3    2pz               0.112012       0.000000
                                                         0.285714       0.116706
                                                         0.878496       0.736703
                                                         3.780455       1.171552

                          1       4    3px               0.112012       0.096580
                                                         0.285714      -0.017996
                                                         0.878496       0.000162
                                                         3.780455       0.000013
                          1       4    3py               0.112012       0.096580
                                                         0.285714      -0.017996
                                                         0.878496       0.000162
                                                         3.780455       0.000013
                          1       4    3pz               0.112012       0.096580
                                                         0.285714      -0.017996
                                                         0.878496       0.000162
                                                         3.780455       0.000013

                          2       1    1s         

     AE Potential information for                                            ALL

       Description:                                       All-electron potential
                                          Krack, Parrinello, PCCP 2, 2105 (2000)

       Gaussian exponent of the core charge distribution:               5.979100
       Electronic configuration (s p d ...):                           4   3   0

  2. Atomic kind: H                                     Number of atoms:       4

     Orbital Basis Set                                    aug-SZV-MOLOPT-ae-mini

       Number of orbital shell sets:                                           1
       Number of orbital shells:                                               4
       Number of primitive Cartesian functions:                                7
       Number of Cartesian basis functions:                                    6
       Number of spherical basis functions:                                    6
       Norm type:                                                              2

       Normalised Cartesian orbitals:

                        Set   Shell   Orbital            Exponent    Coefficient

                          1       1    1s                0.065428       0.000000
                                                         0.100112       0.016532
                                                         0.243077       0.102760
                                                         0.625955       0.185857
                                                         1.822143       0.188385
                                                         6.513144       0.143430
                                                        35.523221       0.095030

                          1       2    2s                0.065428       0.083549
                                                         0.100112       0.009605
                                                         0.243077       0.002524
                                                         0.625955       0.013457
                                                         1.822143       0.000000
                                                         6.513144       0.000000
                                                        35.523221       0.000000

                          1       3    3s                0.065428       0.037407
                                                         0.100112      -0.169070
                                                         0.243077      -0.018899
                                                         0.625955       0.012806
                                                         1.822143       0.000000
                                                         6.513144       0.000000
                                                        35.523221       0.000000

                          1       4    2px               0.065428       0.059908
                                                         0.100112      -0.023770
                                                         0.243077       0.000032
                                                         0.625955       0.017779
                                                         1.822143       0.000000
                                                         6.513144       0.000000
                                                        35.523221       0.000000
                          1       4    2py               0.065428       0.059908
                                                         0.100112      -0.023770
                                                         0.243077       0.000032
                                                         0.625955       0.017779
                                                         1.822143       0.000000
                                                         6.513144       0.000000
                                                        35.523221       0.000000
                          1       4    2pz               0.065428       0.059908
                                                         0.100112      -0.023770
                                                         0.243077       0.000032
                                                         0.625955       0.017779
                                                         1.822143       0.000000
                                                         6.513144       0.000000
                                                        35.523221       0.000000

     RI Auxiliary Basis Set             RI_aug-SZV-MOLOPT-ae_N_RI_035_s_p_d_f_g_

       Number of orbital shell sets:                                          15
       Number of orbital shells:                                              15
       Number of primitive Cartesian functions:                               15
       Number of Cartesian basis functions:                                   37
       Number of spherical basis functions:                                   35
       Norm type:                                                              2

       Normalised Cartesian orbitals:

                        Set   Shell   Orbital            Exponent    Coefficient

                          1       1    1s                0.236911       0.242019

                          2       1    8px               0.347892       0.380843
                          2       1    8py               0.347892       0.380843
                          2       1    8pz               0.347892       0.380843

                          3       1    2s                0.423897       0.374417

                          4       1    9px               0.493166       0.589089
                          4       1    9py               0.493166       0.589089
                          4       1    9pz               0.493166       0.589089

                          5       1   14dx2              0.625366       0.723843
                          5       1   14dxy              0.625366       1.253733
                          5       1   14dxz              0.625366       1.253733
                          5       1   14dy2              0.625366       0.723843
                          5       1   14dyz              0.625366       1.253733
                          5       1   14dz2              0.625366       0.723843

                          6       1   10px               0.699103       0.911206
                          6       1   10py               0.699103       0.911206
                          6       1   10pz               0.699103       0.911206

                          7       1    3s                0.758464       0.579244

                          8       1   11px               0.991036       1.409457
                          8       1   11py               0.991036       1.409457
                          8       1   11pz               0.991036       1.409457

                          9       1   15dx2              1.286053       2.556305
                          9       1   15dxy              1.286053       4.427650
                          9       1   15dxz              1.286053       4.427650
                          9       1   15dy2              1.286053       2.556305
                          9       1   15dyz              1.286053       4.427650
                          9       1   15dz2              1.286053       2.556305

                         10       1    4s                1.357095       0.896123

                         11       1   12px               1.404875       2.180155
                         11       1   12py               1.404875       2.180155
                         11       1   12pz               1.404875       2.180155

                         12       1   13px               1.991527       3.372273
                         12       1   13py               1.991527       3.372273
                         12       1   13pz               1.991527       3.372273

                         13       1    5s                2.428204       1.386354

                         14       1    6s                4.344704       2.144768

                         15       1    7s                7.773833       3.318077

       Atomic covalent radius [Angstrom]:                                  0.320

       Atomic van der Waals radius [Angstrom]:                             1.090

     The atoms of this atomic kind are PAW atoms (GAPW):
       Hard Gaussian function radius:                                      1.200
       Rho0 radius:                                                        1.200
       Maximum GTO radius used for PAW projector construction:            24.566

     GAPW Soft Basis Set                             aug-SZV-MOLOPT-ae-mini_soft

       Number of orbital shell sets:                                           1
       Number of orbital shells:                                               4
       Number of primitive Cartesian functions:                                6
       Number of Cartesian basis functions:                                    6
       Number of spherical basis functions:                                    6
       Norm type:                                                              2

       Normalised Cartesian orbitals:

                        Set   Shell   Orbital            Exponent    Coefficient

                          1       1    1s                0.065428       0.000000
                                                         0.100112       0.016532
                                                         0.243077       0.102760
                                                         0.625955       0.185857
                                                         1.822143       0.188385
                                                         6.513144       0.000000

                          1       2    2s                0.065428       0.083549
                                                         0.100112       0.009605
                                                         0.243077       0.002524
                                                         0.625955       0.013457
                                                         1.822143       0.000000
                                                         6.513144       0.000000

                          1       3    3s                0.065428       0.037407
                                                         0.100112      -0.169070
                                                         0.243077      -0.018899
                                                         0.625955       0.012806
                                                         1.822143       0.000000
                                                         6.513144       0.000000

                          1       4    2px               0.065428       0.059908
                                                         0.100112      -0.023770
                                                         0.243077       0.000032
                                                         0.625955       0.017779
                                                         1.822143       0.000000
                                                         6.513144       0.000000
                          1       4    2py               0.065428       0.059908
                                                         0.100112      -0.023770
                                                         0.243077       0.000032
                                                         0.625955       0.017779
                                                         1.822143       0.000000
                                                         6.513144       0.000000
                          1       4    2pz               0.065428       0.059908
                                                         0.100112      -0.023770
                                                         0.243077       0.000032
                                                         0.625955       0.017779
                                                         1.822143       0.000000
                                                         6.513144       0.000000

     AE Potential information for                                            ALL

       Description:                                       All-electron potential
                                          Krack, Parrinello, PCCP 2, 2105 (2000)

       Gaussian exponent of the core charge distribution:              12.500000
       Electronic configuration (s p d ...):                           1   0   0


 MOLECULE KIND INFORMATION


 All atoms are their own molecule, skipping detailed information


 TOTAL NUMBERS AND MAXIMUM NUMBERS

  Total number of            - Atomic kinds:                                   2
                             - Atoms:                                          6
                             - Shell sets:                                     8
                             - Shells:                                        26
                             - Primitive Cartesian functions:                 42
                             - Cartesian basis functions:                     42
                             - Spherical basis functions:                     42

  Maximum angular momentum of the orbital basis functions:                     1


 MODULE QUICKSTEP: ATOMIC COORDINATES IN ANGSTROM

   Atom Kind Element         X             Y             Z       Z(eff)     Mass
      1    1 N     7     15.716634     15.060355     14.650875   7.0000  14.0067
      2    1 N     7     14.283366     14.939645     14.650875   7.0000  14.0067
      3    2 H     1     16.063438     15.306189     15.571043   1.0000   1.0079
      4    2 H     1     16.085089     14.145976     14.428957   1.0000   1.0079
      5    2 H     1     13.936562     14.693811     15.571043   1.0000   1.0079
      6    2 H     1     13.914911     15.854024     14.428957   1.0000   1.0079



 SCF PARAMETERS         Density guess:                                   RESTART
                        --------------------------------------------------------
                        max_scf:                                             500
                        max_scf_history:                                       0
                        max_diis:                                              4
                        --------------------------------------------------------
                        eps_scf:                                        1.00E-06
                        eps_scf_history:                                0.00E+00
                        eps_diis:                                       0.00E+00
                        eps_eigval:                                     1.00E-05
                        --------------------------------------------------------
                        level_shift [a.u.]:                             0.000000
                        --------------------------------------------------------
                        Outer loop SCF in use 
                        No variables optimised in outer loop
                        eps_scf                                         1.00E-06
                        max_scf                                               20
                        No outer loop optimization
                        step_size                                       5.00E-01

 PW_GRID| Information for grid number                                          1
 PW_GRID| Grid distributed over                                    16 processors
 PW_GRID| Real space group dimensions                                    16    1
 PW_GRID| the grid is blocked:                                                NO
 PW_GRID| Cutoff [a.u.]                                                    250.0
 PW_GRID| spherical cutoff:                                                   NO
 PW_GRID|   Bounds   1           -202     202                Points:         405
 PW_GRID|   Bounds   2           -202     202                Points:         405
 PW_GRID|   Bounds   3           -202     202                Points:         405
 PW_GRID| Volume element (a.u.^3)  0.2743E-02     Volume (a.u.^3)    182205.0337
 PW_GRID| Grid span                                                    FULLSPACE
 PW_GRID|   Distribution                         Average         Max         Min
 PW_GRID|   G-Vectors                          4151882.8     4152060     4151655
 PW_GRID|   G-Rays                               10251.6       10252       10251
 PW_GRID|   Real Space Points                  4151882.8     4264650     4100625

 PW_GRID| Information for grid number                                          2
 PW_GRID| Number of the reference grid                                         1
 PW_GRID| Grid distributed over                                    16 processors
 PW_GRID| Real space group dimensions                                    16    1
 PW_GRID| the grid is blocked:                                                NO
 PW_GRID| Cutoff [a.u.]                                                     83.3
 PW_GRID| spherical cutoff:                                                   NO
 PW_GRID|   Bounds   1           -120     119                Points:         240
 PW_GRID|   Bounds   2           -120     119                Points:         240
 PW_GRID|   Bounds   3           -120     119                Points:         240
 PW_GRID| Volume element (a.u.^3)  0.1318E-01     Volume (a.u.^3)    182205.0337
 PW_GRID| Grid span                                                    FULLSPACE
 PW_GRID|   Distribution                         Average         Max         Min
 PW_GRID|   G-Vectors                           864000.0      864720      863520
 PW_GRID|   G-Rays                                3600.0        3603        3598
 PW_GRID|   Real Space Points                   864000.0      864000      864000

 PW_GRID| Information for grid number                                          3
 PW_GRID| Number of the reference grid                                         1
 PW_GRID| Grid distributed over                                    16 processors
 PW_GRID| Real space group dimensions                                    16    1
 PW_GRID| the grid is blocked:                                                NO
 PW_GRID| Cutoff [a.u.]                                                     27.8
 PW_GRID| spherical cutoff:                                                   NO
 PW_GRID|   Bounds   1            -67      67                Points:         135
 PW_GRID|   Bounds   2            -67      67                Points:         135
 PW_GRID|   Bounds   3            -67      67                Points:         135
 PW_GRID| Volume element (a.u.^3)  0.7406E-01     Volume (a.u.^3)    182205.0337
 PW_GRID| Grid span                                                    FULLSPACE
 PW_GRID|   Distribution                         Average         Max         Min
 PW_GRID|   G-Vectors                           153773.4      154170      153630
 PW_GRID|   G-Rays                                1139.1        1142        1138
 PW_GRID|   Real Space Points                   153773.4      164025      145800

 PW_GRID| Information for grid number                                          4
 PW_GRID| Number of the reference grid                                         1
 PW_GRID| Grid distributed over                                    16 processors
 PW_GRID| Real space group dimensions                                    16    1
 PW_GRID| the grid is blocked:                                                NO
 PW_GRID| Cutoff [a.u.]                                                      9.3
 PW_GRID| spherical cutoff:                                                   NO
 PW_GRID|   Bounds   1            -40      39                Points:          80
 PW_GRID|   Bounds   2            -40      39                Points:          80
 PW_GRID|   Bounds   3            -40      39                Points:          80
 PW_GRID| Volume element (a.u.^3)  0.3559         Volume (a.u.^3)    182205.0337
 PW_GRID| Grid span                                                    FULLSPACE
 PW_GRID|   Distribution                         Average         Max         Min
 PW_GRID|   G-Vectors                            32000.0       32240       31840
 PW_GRID|   G-Rays                                 400.0         403         398
 PW_GRID|   Real Space Points                    32000.0       32000       32000

 POISSON| Solver                                                         WAVELET
 POISSON| Wavelet| Scaling function                                           40
 POISSON| Periodicity                                                       NONE

 RS_GRID| Information for grid number                                          1
 RS_GRID|   Bounds   1           -202     202                Points:         405
 RS_GRID|   Bounds   2           -202     202                Points:         405
 RS_GRID|   Bounds   3           -202     202                Points:         405
 RS_GRID| Real space distribution over                                  4 groups
 RS_GRID| Real space distribution along direction                              2
 RS_GRID| Border size                                                         33
 RS_GRID| Real space distribution over                                  4 groups
 RS_GRID| Real space distribution along direction                              3
 RS_GRID| Border size                                                         33
 RS_GRID|   Distribution                         Average         Max         Min
 RS_GRID|   Planes                                 167.2         168         167
 RS_GRID|   Distribution                         Average         Max         Min
 RS_GRID|   Planes                                 167.2         168         167

 RS_GRID| Information for grid number                                          2
 RS_GRID|   Bounds   1           -120     119                Points:         240
 RS_GRID|   Bounds   2           -120     119                Points:         240
 RS_GRID|   Bounds   3           -120     119                Points:         240
 RS_GRID| Real space distribution over                                  4 groups
 RS_GRID| Real space distribution along direction                              2
 RS_GRID| Border size                                                         35
 RS_GRID| Real space distribution over                                  4 groups
 RS_GRID| Real space distribution along direction                              3
 RS_GRID| Border size                                                         35
 RS_GRID|   Distribution                         Average         Max         Min
 RS_GRID|   Planes                                 130.0         130         130
 RS_GRID|   Distribution                         Average         Max         Min
 RS_GRID|   Planes                                 130.0         130         130

 RS_GRID| Information for grid number                                          3
 RS_GRID|   Bounds   1            -67      67                Points:         135
 RS_GRID|   Bounds   2            -67      67                Points:         135
 RS_GRID|   Bounds   3            -67      67                Points:         135
 RS_GRID| Real space fully replicated
 RS_GRID| Group size                                                           1

 RS_GRID| Information for grid number                                          4
 RS_GRID|   Bounds   1            -40      39                Points:          80
 RS_GRID|   Bounds   2            -40      39                Points:          80
 RS_GRID|   Bounds   3            -40      39                Points:          80
 RS_GRID| Real space fully replicated
 RS_GRID| Group size                                                           1

  HFX_INFO| Replica ID:                                                        1
  HFX_INFO| FRACTION:                                               0.2500000000
  HFX_INFO| Interaction Potential:                                       COULOMB
  HFX_INFO| EPS_SCHWARZ:                                                 1.0E-10
  HFX_INFO| EPS_SCHWARZ_FORCES                                           1.0E-08
  HFX_INFO| EPS_STORAGE_SCALING:                                         1.0E+00
  HFX_INFO| NBINS:                                                            64
  HFX_INFO| BLOCK_SIZE:                                                        1
  HFX_INFO| Number of periodic shells considered:                           NONE
  HFX_INFO| Number of periodic cells considered:                            NONE


 OVERLAP MATRIX CONDITION NUMBER
 1-Norm Condition Number (Estimate)
   CN : |A|*|A^-1|:  1.298E+001 *  3.275E+003   = 4.250E+004  Log(1-CN):  4.6284
 1-Norm and 2-Norm Condition Numbers using Diagonalization
   CN : |A|*|A^-1|:  1.298E+001 *  3.275E+003   = 4.251E+004  Log(1-CN):  4.6285
   CN : max/min ev:  8.564E+000 /  6.091E-004   = 1.406E+004  Log(2-CN):  4.1480

 Number of electrons:                                                         18
 Number of occupied orbitals:                                                  9
 Number of molecular orbitals:                                                 9

 Number of orbital functions:                                                 42
 Number of independent orbital functions:                                     42

 Extrapolation method: initial_guess


 SCF WAVEFUNCTION OPTIMIZATION

  ----------------------------------- OT ---------------------------------------
  Minimizer      : CG                  : conjugate gradient
  Preconditioner : FULL_SINGLE_INVERSE : inversion of 
                                         H + eS - 2*(Sc)(c^T*H*c+const)(Sc)^T
  Precond_solver : DEFAULT
  Line search    : 3PNT                : 3 energies
  stepsize       :    0.08000000                  energy_gap     :    0.08000000
  eps_taylor     :   0.10000E-15                  max_taylor     :             4
  ----------------------------------- OT ---------------------------------------

  Step     Update method      Time    Convergence         Total energy    Change
  ------------------------------------------------------------------------------

  HFX_MEM_INFO| Est. max. program size before HFX [MiB]:                    2325
  HFX_MEM_INFO| Number of cart. primitive ERI's calculated:             78058541
  HFX_MEM_INFO| Number of sph. ERI's calculated:                          563597
  HFX_MEM_INFO| Number of sph. ERI's stored in-core:                      563597
  HFX_MEM_INFO| Number of sph. ERI's stored on disk:                           0
  HFX_MEM_INFO| Number of sph. ERI's calculated on the fly:                    0
  HFX_MEM_INFO| Total memory consumption ERI's RAM [MiB]:                      2
  HFX_MEM_INFO| Whereof max-vals [MiB]:                                        1
  HFX_MEM_INFO| Total compression factor ERI's RAM:                         3.26
  HFX_MEM_INFO| Total memory consumption ERI's disk [MiB]:                     0
  HFX_MEM_INFO| Total compression factor ERI's disk:                        0.00
  HFX_MEM_INFO| Size of density/Fock matrix [MiB]:                             0
  HFX_MEM_INFO| Size of buffers [MiB]:                                         0
  HFX_MEM_INFO| Est. max. program size after HFX  [MiB]:                    2795

     1 OT CG       0.64E-01    4.0     0.00000271      -110.4141857887 -1.10E+02
     - OT LS       0.32E-01    2.2                     -110.4141857885
     - OT LS       0.16E-01    2.2                     -110.4141857887
     2 OT CG       0.13E-01    3.0     0.00000241      -110.4141857887 -2.20E-11
     - OT LS       0.18E-01    2.2                     -110.4141857887
     - OT LS       0.37E-01    2.2                     -110.4141857887
     3 OT CG       0.30E-01    3.0     0.00000349      -110.4141857887 -3.96E-11
     - OT LS       0.41E-01    2.2                     -110.4141857888
     - OT LS       0.29E-01    2.2                     -110.4141857888
     4 OT CG       0.23E-01    3.0     0.00000265      -110.4141857888 -6.68E-11
     - OT LS       0.33E-01    2.2                     -110.4141857888
     - OT LS       0.15E-01    2.2                     -110.4141857888
     5 OT CG       0.12E-01    3.0     0.00000137      -110.4141857888 -1.96E-11
     - OT LS       0.17E-01    2.2                     -110.4141857888
     - OT LS       0.16E-01    2.2                     -110.4141857888
     6 OT CG       0.13E-01    3.0     0.00000095      -110.4141857888 -5.04E-12

  *** SCF run converged in     6 steps ***


  Electronic density on regular grids:        -14.0653945062        3.9346054938
  Core density on regular grids:               18.0000000000       -0.0000000000
  Hard and soft densities (Lebedev):          -71.3535157826      -67.4189107304
  Total Rho_soft + Rho1_hard - Rho1_soft      -17.9999995584
  Total charge density (r-space):               0.0000004416
  Total Rho_soft + Rho0_soft (g-space):         0.0000004003

  Overlap energy of the core charge distribution:               0.00000078416985
  Self energy of the core charge distribution:               -101.24104932184676
  Core Hamiltonian energy:                                    -12.37971163207534
  Hartree energy:                                              36.59427656254721
  Exchange-correlation energy:                                 -5.02392331306332
  Hartree-Fock Exchange energy:                                -3.63120890568015

  GAPW| Exc from hard and soft atomic rho1:                    -6.39176358244418
  GAPW| local Eh = 1 center integrals:                        -18.34080638042560

  Total energy:                                              -110.41418578881827

  outer SCF iter =    1 RMS gradient =   0.95E-06 energy =       -110.4141857888
  outer SCF loop converged in   1 iterations or   16 steps


 !-----------------------------------------------------------------------------!
                     Mulliken Population Analysis

 #  Atom  Element  Kind  Atomic population                           Net charge
       1     N        1          7.545488                             -0.545488
       2     N        1          7.545489                             -0.545489
       3     H        2          0.791723                              0.208277
       4     H        2          0.662789                              0.337211
       5     H        2          0.791723                              0.208277
       6     H        2          0.662789                              0.337211
 # Total charge                             18.000000                  0.000000

 !-----------------------------------------------------------------------------!

 !-----------------------------------------------------------------------------!
                           Hirshfeld Charges

  #Atom  Element  Kind  Ref Charge     Population                    Net charge
      1       N      1       7.000          8.064                        -1.064
      2       N      1       7.000          8.064                        -1.064
      3       H      2       1.000          0.468                         0.532
      4       H      2       1.000          0.461                         0.539
      5       H      2       1.000          0.468                         0.532
      6       H      2       1.000          0.461                         0.539

  Total Charge                                                            0.014
 !-----------------------------------------------------------------------------!

 *******************************************************************************
 **                                                                           **
 **         ######## #######   #######   ######## #######  ########           **
 **            ##    ##     ## ##     ## ##       ##   ##     ##              **
 **            ##    ##     ## ##     ## ######   #######     ##              **
 **            ##    ##     ## ##     ## ##       ##          ##              **
 **            ##    #######   #######   ##       ##          ##              **
 **                                                                           **
 *******************************************************************************
 KERNEL|                                                                    FULL
 FUNCTIONAL| PBE:
 FUNCTIONAL| J.P.Perdew, K.Burke, M.Ernzerhof, Phys. Rev. Letter, vol. 77, n 18,
 FUNCTIONAL|  pp. 3865-3868, (1996)sx=0.750sc=1.000{spin unpolarized}           
 KERNEL|                                                          Exact Exchange
 KERNEL| Spin symmetry of excitations                                    Singlet
 TDDFPT| Number of states calculated                                          20
 TDDFPT| Number of Davidson iterations                                       100
 TDDFPT| Davidson iteration convergence                                0.367E-07
 TDDFPT| Max. number of Krylov space vectors                                5000
 TDDFPT| Molecular Orbitals:        Spin       AOs       Occ      Virt     Total
 TDDFPT|                               1        42         9        33        42
 
 -------------------------------------------------------------------------------
 -                            TDDFPT Initial Guess                             -
 -------------------------------------------------------------------------------
          State         Occupied      ->      Virtual          Excitation
          number         orbital              orbital          energy (eV)
 -------------------------------------------------------------------------------
             1                9                   10              6.97998
             2                8                   10              7.11011
             3                9                   11              7.72033
             4                8                   11              7.85046
             5                9                   12              8.58984
             6                9                   13              8.66352
             7                8                   12              8.71997
             8                8                   13              8.79365
             9                9                   14              9.93843
            10                9                   15              9.97086
            11                8                   14             10.06856
            12                8                   15             10.10099
            13                9                   16             10.20910
            14                8                   16             10.33923
            15                9                   17             10.38027
            16                9                   18             10.50237
            17                8                   17             10.51040
            18                8                   18             10.63250
            19                9                   19             11.90647
            20                8                   19             12.03660

      Number of active states:                                        297
 -------------------------------------------------------------------------------
 
 -------------------------------------------------------------------------------
 -                      TDDFPT WAVEFUNCTION OPTIMIZATION                       -
 -------------------------------------------------------------------------------

          Step            Time         Convergence           Conv. states
 -------------------------------------------------------------------------------

    State    Exc. energy (eV)      Convergence (eV)
        1       5.6368883            -1.3431E+00
        2       5.7539834            -1.3561E+00
        3       6.5024764            -1.2179E+00
        4       6.5801693            -1.2703E+00
        5       7.3685932            -1.2213E+00
        6       7.3796492            -1.2839E+00
        7       7.5095074            -1.2105E+00
        8       7.6405528            -1.1531E+00
        9       8.6798660            -1.2586E+00
       10       8.7435448            -1.2273E+00
       11       8.8460838            -1.2225E+00
       12       8.9067298            -1.1943E+00
       13       9.0291410            -1.1800E+00
       14       9.1349138            -1.2043E+00
       15       9.2890889            -1.0912E+00
       16       9.3070079            -1.1954E+00
       17       9.5132070            -9.9719E-01
       18      10.1193347            -5.1317E-01
       19      10.8041568            -1.1023E+00
       20      10.8678324            -1.1688E+00

             1            58.8          4.9837E-02                      0

    State    Exc. energy (eV)      Convergence (eV)
        1       5.6024756            -3.4413E-02
        2       5.7154947            -3.8489E-02
        3       6.4568954            -4.5581E-02
        4       6.5400672            -4.0102E-02
        5       7.3226571            -4.5936E-02
        6       7.3392136            -4.0436E-02
        7       7.4711115            -3.8396E-02
        8       7.5779247            -6.2628E-02
        9       8.6563300            -2.3536E-02
       10       8.7215188            -2.2026E-02
       11       8.8093443            -3.6740E-02
       12       8.8760577            -3.0672E-02
       13       8.9940801            -3.5061E-02
       14       9.0860275            -4.8886E-02
       15       9.2473785            -4.1710E-02
       16       9.2475624            -5.9446E-02
       17       9.3658706            -1.4734E-01
       18       9.6981815            -4.2115E-01
       19      10.7637833            -4.0374E-02
       20      10.8230275            -4.4805E-02

             2            58.6          1.5477E-02                      0

    State    Exc. energy (eV)      Convergence (eV)
        1       5.6021441            -3.3148E-04
        2       5.7151072            -3.8753E-04
        3       6.4561053            -7.9009E-04
        4       6.5395601            -5.0709E-04
        5       7.3221883            -4.6873E-04
        6       7.3389633            -2.5030E-04
        7       7.4707639            -3.4760E-04
        8       7.5768137            -1.1110E-03
        9       8.6561103            -2.1965E-04
       10       8.7212548            -2.6406E-04
       11       8.8088048            -5.3951E-04
       12       8.8751243            -9.3338E-04
       13       8.9932831            -7.9704E-04
       14       9.0842988            -1.7288E-03
       15       9.2457037            -1.6748E-03
       16       9.2465755            -9.8691E-04
       17       9.3636250            -2.2456E-03
       18       9.6916198            -6.5617E-03
       19      10.7577724            -6.0109E-03
       20      10.8054727            -1.7555E-02

             3            58.9          6.4513E-04                      0

    State    Exc. energy (eV)      Convergence (eV)
        1       5.6021434            -7.0317E-07
        2       5.7151063            -9.0714E-07
        3       6.4561037            -1.6269E-06
        4       6.5395580            -2.1163E-06
        5       7.3221872            -1.1088E-06
        6       7.3389626            -7.4509E-07
        7       7.4707622            -1.7363E-06
        8       7.5768102            -3.4817E-06
        9       8.6561089            -1.4335E-06
       10       8.7212531            -1.6526E-06
       11       8.8088023            -2.4760E-06
       12       8.8751097            -1.4567E-05
       13       8.9932752            -7.8307E-06
       14       9.0842882            -1.0589E-05
       15       9.2456956            -8.0739E-06
       16       9.2465643            -1.1196E-05
       17       9.3636156            -9.3731E-06
       18       9.6915122            -1.0754E-04
       19      10.7567938            -9.7857E-04
       20      10.8034332            -2.0394E-03

             4            58.9          7.4948E-05                      3

    State    Exc. energy (eV)      Convergence (eV)
        1       5.6021434            -8.6556E-10
        2       5.7151063            -1.5236E-09
        3       6.4561037            -3.8215E-09
        4       6.5395580            -5.0883E-09
        5       7.3221872            -2.5654E-09
        6       7.3389626            -2.8166E-09
        7       7.4707622            -6.2033E-09
        8       7.5768102            -1.6387E-08
        9       8.6561089            -4.3070E-09
       10       8.7212531            -7.5525E-09
       11       8.8088023            -1.3523E-08
       12       8.8751096            -7.1154E-08
       13       8.9932752            -7.3486E-08
       14       9.0842881            -3.5759E-08
       15       9.2456956            -6.7647E-08
       16       9.2465642            -8.7906E-08
       17       9.3636155            -6.2594E-08
       18       9.6915109            -1.3283E-06
       19      10.7567159            -7.7882E-05
       20      10.8032988            -1.3442E-04

             5            58.8          4.9397E-06                     17

    State    Exc. energy (eV)      Convergence (eV)
        1       5.6021434            -1.2975E-12
        2       5.7151063            -3.1563E-12
        3       6.4561037            -7.1894E-12
        4       6.5395580            -6.7083E-12
        5       7.3221872            -4.7506E-12
        6       7.3389626            -6.2506E-12
        7       7.4707622            -1.3926E-11
        8       7.5768102            -4.2203E-11
        9       8.6561089            -1.2430E-11
       10       8.7212531            -1.8817E-11
       11       8.8088023            -3.8078E-11
       12       8.8751096            -1.0376E-10
       13       8.9932752            -2.5077E-10
       14       9.0842881            -1.0719E-10
       15       9.2456956            -3.4796E-10
       16       9.2465642            -3.7794E-10
       17       9.3636155            -2.0032E-10
       18       9.6915109            -1.0505E-08
       19      10.7567146            -1.3804E-06
       20      10.8032974            -1.4330E-06

             6            59.6          5.2660E-08                     18

    State    Exc. energy (eV)      Convergence (eV)
        1       5.6021434             3.0211E-15
        2       5.7151063             9.0632E-15
        3       6.4561037            -6.7974E-15
        4       6.5395580            -9.8185E-15
        5       7.3221872            -2.1147E-14
        6       7.3389626            -1.5105E-14
        7       7.4707622            -1.9637E-14
        8       7.5768102            -6.7974E-14
        9       8.6561089            -5.2869E-14
       10       8.7212531            -5.2869E-14
       11       8.8088023            -8.0058E-14
       12       8.8751096            -2.9455E-13
       13       8.9932752            -6.4349E-13
       14       9.0842881            -3.5800E-13
       15       9.2456956            -5.9817E-13
       16       9.2465642            -9.3351E-13
       17       9.3636155            -4.8941E-13
       18       9.6915109            -2.0539E-11
       19      10.7567145            -4.9260E-09
       20      10.8032974            -1.4162E-08

             7            58.6          5.2044E-10                     20
 
 -------------------------------------------------------------------------------
 -  TDDFPT run converged in 7 iteration(s) 
 -------------------------------------------------------------------------------

 R-TDDFPT states of multiplicity 1
 Transition dipoles calculated using velocity formulation

         State    Excitation        Transition dipole (a.u.)        Oscillator
         number   energy (eV)       x           y           z     strength (a.u.)
         ------------------------------------------------------------------------
 TDDFPT|      1       5.60214   2.9439E-06 -5.3733E-06 -3.0858E-01   1.30691E-02
 TDDFPT|      2       5.71511   1.4745E-01 -2.8400E-01  5.7381E-06   1.43374E-02
 TDDFPT|      3       6.45610  -2.6721E-01 -4.1376E-01 -1.1345E-05   3.83725E-02
 TDDFPT|      4       6.53956  -7.3036E-06 -1.1294E-05  4.0882E-01   2.67775E-02
 TDDFPT|      5       7.32219   2.3060E-01 -8.7824E-02  4.4496E-06   1.09227E-02
 TDDFPT|      6       7.33896   1.7613E-05 -3.8403E-06 -3.7377E-02   2.51195E-04
 TDDFPT|      7       7.47076   8.2141E-07  4.5118E-06  1.6297E-01   4.86096E-03
 TDDFPT|      8       7.57681  -2.6465E-01 -2.5088E-01  1.9228E-06   2.46857E-02
 TDDFPT|      9       8.65611   8.9445E-07  3.8317E-06  9.1480E-02   1.77472E-03
 TDDFPT|     10       8.72125  -4.9084E-03  8.5736E-02 -4.3014E-06   1.57575E-03
 TDDFPT|     11       8.80880   8.0659E-02  1.5575E-01  4.2139E-06   6.63917E-03
 TDDFPT|     12       8.87511  -1.3994E-06 -2.8008E-06  2.4078E-01   1.26055E-02
 TDDFPT|     13       8.99328  -1.7207E-06  6.3205E-06 -3.1432E-01   2.17682E-02
 TDDFPT|     14       9.08429  -8.0978E-02  2.5658E-01  7.7510E-06   1.61110E-02
 TDDFPT|     15       9.24570  -3.2636E-01 -1.3051E-01 -7.6753E-05   2.79852E-02
 TDDFPT|     16       9.24656  -5.0398E-04 -2.0210E-04  5.0075E-02   5.68100E-04
 TDDFPT|     17       9.36362   1.0483E-01  4.2932E-02  7.8312E-07   2.94394E-03
 TDDFPT|     18       9.69151   1.3848E-06  5.6736E-07  5.7657E-02   7.89317E-04
 TDDFPT|     19      10.75671  -2.6548E-01  3.0059E-01 -8.1769E-06   4.23856E-02
 TDDFPT|     20      10.80330  -1.0330E-05  1.3622E-05  1.6367E-01   7.08994E-03

 TDDFPT : CheckSum  =  0.138723E+01
 
 -------------------------------------------------------------------------------
 -                            Excitation analysis                              -
 -------------------------------------------------------------------------------
        State             Occupied              Virtual             Excitation
        number             orbital              orbital             amplitude
 -------------------------------------------------------------------------------
             1   5.60214 eV
                                 9                   10              -0.991707
                                 8                   11              -0.102263
             2   5.71511 eV
                                 8                   10              -0.986839
                                 9                   11              -0.132257
                                 9                   12               0.052584
             3   6.45610 eV
                                 9                   11              -0.985319
                                 8                   10               0.133429
                                 8                   14              -0.060419
                                 9                   23              -0.052568
             4   6.53956 eV
                                 8                   11               0.987709
                                 9                   10              -0.103285
                                 9                   14               0.063607
                                 8                   23               0.059443
             5   7.32219 eV
                                 9                   12              -0.935453
                                 8                   13              -0.338435
                                 9                   25              -0.054336
             6   7.33896 eV
                                 9                   13               0.953341
                                 8                   12               0.277685
                                 9                   24              -0.075298
             7   7.47076 eV
                                 8                   12              -0.955709
                                 9                   13               0.277619
             8   7.57681 eV
                                 8                   13              -0.935614
                                 9                   12               0.337878
             9   8.65611 eV
                                 9                   14              -0.962294
                                 8                   15              -0.237795
                                 8                   11               0.055973
                                 9                   16               0.052964
                                 8                   18              -0.050827
            10   8.72125 eV
                                 9                   15              -0.869172
                                 8                   14              -0.455762
                                 9                   18              -0.159512
                                 8                   16               0.063104
            11   8.80880 eV
                                 8                   14              -0.871774
                                 9                   15               0.466046
                                 8                   16               0.102672
                                 9                   11               0.053785
            12   8.87511 eV
                                 8                   15               0.917686
                                 9                   16               0.224517
                                 9                   14              -0.218516
                                 8                   18               0.194288
                                 9                   17              -0.112615
                                 8                   25              -0.051986
            13   8.99328 eV
                                 9                   16              -0.905788
                                 9                   17              -0.373719
                                 8                   15               0.137655
                                 8                   18               0.092660
                                 9                   14              -0.068479
            14   9.08429 eV
                                 8                   16              -0.966532
                                 8                   17              -0.197034
                                 8                   14              -0.118313
                                 9                   18               0.056237
            15   9.24570 eV
                                 9                   18              -0.976959
                                 9                   15               0.127748
                                 9                   26               0.089663
                                 8                   14               0.084953
                                 8                   16              -0.060102
            16   9.24656 eV
                                 9                   17               0.794799
                                 8                   18               0.529809
                                 9                   16              -0.263115
                                 9                   14              -0.085046
                                 8                   26              -0.058772
            17   9.36362 eV
                                 8                   17              -0.971934
                                 8                   16               0.194019
[...]
 https://doi.org/10.1063/5.0007045

 O. Schuett, P. Messmer, J. Hutter, J. VandeVondele.
 Electronic Structure Calculations on Graphics Processing Units, 173-190 (2016).
 GPU-Accelerated Sparse Matrix-Matrix Multiplication for Linear Scaling Density 
 Functional Theory.
 https://doi.org/10.1002/9781118670712.ch8

 A. Heinecke, G. Henry, M. Hutchinson, H. Pabst.
 Proceedings of Intl. Supercomputing Conference, 981-991 (2016).
 LIBXSMM: Accelerating Small Matrix Multiplications by Runtime Code Generation.
 https://doi.org/10.1109/SC.2016.83

 J. Hutter, M. Iannuzzi, F. Schiffmann, J. VandeVondele.
 WIREs Comput Mol Sci. 4, 15-25 (2014).
 CP2K: atomistic simulations of condensed matter systems.
 https://doi.org/10.1002/wcms.1159

 U. Borstnik, J. VandeVondele, V. Weber, J. Hutter.
 Parallel Comput. 40, 47-58 (2014).
 Sparse matrix multiplication: The distributed block-compressed sparse row 
 library.
 https://doi.org/10.1016/j.parco.2014.03.012

 A. Marek, V. Blum, R. Johanni, V. Havu, B. Lang, T. Auckenthaler, A. Heinecke, 
 H. Bungartz, H. Lederer.
 J. Phys. Condens. Matter 26, 213201 (2014).
 The ELPA library: scalable parallel eigenvalue solutions for electronic 
 structure theory and computational science.
 https://doi.org/10.1088/0953-8984/26/21/213201

 M. Guidon, J. Hutter, J. VandeVondele.
 J. Chem. Theory Comput. 5, 3010-3021 (2009).
 Robust Periodic Hartree-Fock Exchange for Large-Scale Simulations Using 
 Gaussian Basis Sets.
 https://doi.org/10.1021/ct900494g

 M. Guidon, F. Schiffmann, J. Hutter, J. VandeVondele.
 J. Chem. Phys. 128, 214104 (2008).
 Ab initio molecular dynamics using hybrid density functionals.
 https://doi.org/10.1063/1.2931945

 L. Genovese, T. Deutsch, S. Goedecker.
 J. Chem. Phys. 127, 054704 (2007).
 Efficient and accurate three-dimensional Poisson solver for surface problems.
 https://doi.org/10.1063/1.2754685

 J. VandeVondele, J. Hutter.
 J. Chem. Phys. 127, 114105 (2007).
 Gaussian basis sets for accurate calculations on molecular systems in gas and 
 condensed phases.
 https://doi.org/10.1063/1.2770708

 L. Genovese, T. Deutsch, A. Neelov, S. Goedecker, G. Beylkin.
 J. Chem. Phys. 125, 074105 (2006).
 Efficient solution of Poisson's equation with free boundary conditions.
 https://doi.org/10.1063/1.2335442

 M. Iannuzzi, T. Chassaing, T. Wallman, J. Hutter.
 CHIMIA 59, 499-503 (2005).
 Ground and excited state density functional calculations with the Gaussian and 
 augmented-plane-wave method.
 https://doi.org/10.2533/000942905777676164

 M. Frigo, S. G. Johnson.
 Proc. IEEE 93, 216-231 (2005).
 The design and implementation of FFTW3.
 https://doi.org/10.1109/JPROC.2004.840301

 J. VandeVondele, J. Hutter.
 J. Chem. Phys. 118, 4365-4369 (2003).
 An efficient orbital transformation method for electronic structure 
 calculations.
 https://doi.org/10.1063/1.1543154

 R. L. Martin.
 J. Chem. Phys. 118, 4775-4777 (2003).
 Natural transition orbitals.
 https://doi.org/10.1063/1.1558471

 M. Krack, M. Parrinello.
 Phys. Chem. Chem. Phys. 2, 2105-2112 (2000).
 All-electron ab-initio molecular dynamics.
 https://doi.org/10.1039/b001167n

 G. Lippert, J. Hutter, M. Parrinello.
 Theor. Chem. Acc. 103, 124-140 (1999).
 The Gaussian and augmented-plane-wave density functional method for ab initio 
 molecular dynamics simulations.
 https://doi.org/10.1007/s002140050523

 J. P. Perdew, K. Burke, M. Ernzerhof.
 Phys. Rev. Lett. 77, 3865-3868 (1996).
 Generalized gradient approximation made simple.
 https://doi.org/10.1103/PhysRevLett.77.3865


 -------------------------------------------------------------------------------
 -                                                                             -
 -                                T I M I N G                                  -
 -                                                                             -
 -------------------------------------------------------------------------------
 SUBROUTINE                       CALLS  ASD         SELF TIME        TOTAL TIME
                                MAXIMUM       AVERAGE  MAXIMUM  AVERAGE  MAXIMUM
 CP2K                                 1  1.0    0.017    0.035  457.140  457.141
 qs_energies                          1  2.0    0.000    0.000  456.211  456.213
 qs_energies_properties               1  3.0    0.000    0.000  413.839  413.841
 tddfpt                               1  4.0    0.001    0.002  413.839  413.841
 tddfpt_energies                      1  5.0    0.000    0.000  413.829  413.830
 tddfpt_davidson_solver               1  6.0    0.000    0.001  412.352  412.354
 tddfpt_compute_Aop_evects            7  7.0    0.000    0.000  412.039  412.040
 fhxc_kernel                          7  8.0    0.005    0.005  406.078  406.080
 fft_wrap_pw1pw2                   3045 11.4    0.062    0.070  233.452  234.486
 fft_wrap_pw1pw2_250               2133 12.5    8.965    9.396  226.080  227.546
 tddfpt_apply_coulomb               140  9.0    0.002    0.002  166.956  167.397
 fft3d_ps                          3045 13.4   80.951   86.116  156.900  161.495
 pw_poisson_solve                   156  9.8    4.485    5.203  159.069  159.442
 tddfpt_apply_xc_analytic           140  9.0    0.676    0.734  126.390  126.743
 xc_pw_derive                       909 11.0    0.006    0.007  107.346  108.289
 ps_wavelet_solve                   156 10.8   85.449   92.145  100.668  101.103
 xc_calc_2nd_deriv_analytical       420 10.4    5.054    5.349   73.612   73.661
 xc_pw_divergence                   146 11.0    0.003    0.004   69.264   69.945
 qs_rho_update_rho_low              158  8.6    0.002    0.002   63.488   63.489
 calculate_rho_elec                 158  9.6    2.455    2.523   63.431   63.431
 mp_alltoall_z22v                  3045 15.4   47.914   57.860   47.914   57.860
 density_rs2pw                      158 10.6    0.006    0.006   49.979   50.378
 mp_alltoall_d54                    156 11.8    9.897   46.712    9.897   46.712
 x_to_yz                           1515 14.1   14.822   16.187   40.187   44.629
 scf_env_do_scf                       1  3.0    0.000    0.000   41.318   41.318
 yz_to_x                           1530 14.8   13.160   14.137   35.709   40.718
 scf_env_do_scf_inner_loop           16  4.0    0.000    0.001   37.299   37.300
 qs_ks_update_qs_env                 17  5.0    0.000    0.000   34.775   34.775
 rebuild_ks_matrix                   16  6.0    0.000    0.000   34.774   34.774
 qs_ks_build_kohn_sham_matrix        16  7.0    0.002    0.002   34.774   34.774
 pw_gather_p                       1530 13.8   30.692   34.080   30.692   34.080
 integrate_v_rspace                 146  9.0    0.004    0.004   32.703   32.736
 potential_pw2rs                    146 10.0    0.057    0.060   32.424   32.452
 prepare_gapw_den                   157  8.9    0.002    0.002   26.900   27.581
 pw_scatter_p                      1515 13.1   26.930   27.574   26.930   27.574
 put_rho0_on_grid                   157  9.9    2.454    2.522   26.760   27.441
 transfer_pw2rs                     741 11.0    0.010    0.013   20.299   20.984
 transfer_rs2pw                     790 11.4    0.013    0.017   17.404   18.237
 mp_waitany                       18460 13.1   13.678   17.218   13.678   17.218
 transfer_pw2rs_250                 303 11.9    5.744    6.952   14.982   16.236
 transfer_rs2pw_250                 316 12.2    5.493    6.656   12.445   13.593
 pw_derive                         1377 11.9   12.076   12.708   12.076   12.708
 grid_collocate_task_list           158 10.6   10.541   11.079   10.541   11.079
 qs_vxc_create                       16  8.0    0.000    0.000   10.598   10.599
 integrate_vhg0_rspace              156  9.8    0.027    0.040    9.957    9.979
 mp_waitall_1                     78843 14.1    5.053    9.832    5.053    9.832
 mp_alltoall_d11v                 11779 11.8    5.097    8.981    5.097    8.981
 xc_rho_set_and_dset_create          17  9.9    0.158    0.178    7.115    8.116
 fft_wrap_pw1pw2_90                 304 12.3    0.235    0.248    6.211    7.438
 mp_alltoall_d45                    157 11.8    4.247    7.414    4.247    7.414
 pw_copy                           2015 11.1    6.853    7.214    6.853    7.214
 pw_poisson_set                     157 10.8    0.003    0.003    6.491    6.883
 cp2k_distribution_to_z_slices      156 10.8    3.524    4.364    6.369    6.565
 pw_copy_to_array                  1530 13.8    5.758    6.196    5.758    6.196
 integrate_four_center              296  9.9    3.012    5.776    6.041    6.071
 tddfpt_apply_hfx                     7  8.0    0.001    0.001    5.855    5.855
 xc_vxc_pw_create                     6  9.0    0.135    0.142    5.815    5.816
 pw_axpy                           1658 11.2    5.289    5.682    5.289    5.682
 mp_sync                           1536 11.7    2.753    5.640    2.753    5.640
 tddft_hfx_matrix                   280  9.0    0.002    0.003    5.466    5.486
 pw_integral_ab_c1d_c1d_gs          156 10.8    3.440    3.710    4.332    4.954
 mp_sum_d                          2294  7.8    2.964    4.803    2.964    4.803
 xc_exc_calc                         10  9.0    0.156    0.162    4.783    4.783
 transfer_pw2rs_90                  146 12.0    0.734    0.856    3.545    4.251
 pw_copy_from_array                1515 13.1    3.855    4.096    3.855    4.096
 init_scf_loop                        1  4.0    0.000    0.000    4.018    4.018
 mp_isend_dm3                      3692 13.1    0.860    3.936    0.860    3.936
 pw_zero                           1912 10.6    3.579    3.801    3.579    3.801
 rs_grid_zero                       763 12.1    3.318    3.409    3.318    3.409
 transfer_rs2pw_90                  158 12.6    0.722    0.798    3.011    3.363
 mp_isend_dv                      25128 13.6    0.907    3.014    0.907    3.014
 prepare_dr1dr                      420 11.4    1.527    1.748    1.527    1.748
 mp_irecv_dm3                      3692 13.1    0.282    1.693    0.282    1.693
 transfer_rs2pw_30                  158 12.6    0.534    0.636    1.515    1.664
 transfer_pw2rs_30                  146 12.0    0.599    0.702    1.428    1.619
 xc_functional_eval                 329 10.9    0.001    0.001    0.607    1.576
 pbe_lda_eval                       329 11.9    0.606    1.576    0.606    1.576
 mp_sum_dm                         2862 10.6    0.817    1.564    0.817    1.564
 mp_sendrecv_dv                    4740 13.6    1.291    1.457    1.291    1.457
 sum_up_and_integrate                 6  8.0    0.000    0.000    1.375    1.382
 scale_and_distribute               312 11.8    1.170    1.328    1.170    1.328
 mp_max_i                           621  4.2    0.709    1.087    0.709    1.087
 fft_wrap_pw1pw2_30                 304 12.3    0.044    0.048    0.883    1.066
 pw_poisson_rebuild                 156 10.8    0.000    0.000    0.991    1.031
 ps_wavelet_create                    1 10.0    0.000    0.000    0.991    1.031
 RS_z_slice_distribution              1 11.0    0.896    0.972    0.991    1.031
 qs_init_subsys                       1  2.0    0.001    0.001    0.795    0.795
 qs_env_setup                         1  3.0    0.000    0.000    0.792    0.793
 qs_env_rebuild_pw_env                2  3.5    0.000    0.000    0.792    0.793
 pw_env_rebuild                       1  5.0    0.000    0.000    0.792    0.793
 cp_dbcsr_sm_fm_multiply            887  8.6    0.008    0.009    0.776    0.789
 pw_grid_setup                        4  6.0    0.000    0.000    0.788    0.789
 pw_grid_setup_internal               4  7.0    0.011    0.011    0.788    0.789
 Vh_1c_gg_integrals                 156  9.8    0.013    0.026    0.411    0.677
 pw_grid_sort                         4  8.0    0.467    0.479    0.650    0.666
 create_kernel_env                    1  6.0    0.000    0.000    0.561    0.626
 xc_prep_2nd_deriv                    1  7.0    0.000    0.000    0.561    0.626
 hfx_ks_matrix                       16  8.0    0.000    0.000    0.578    0.591
 tddfpt_construct_ground_state_       1  6.0    0.000    0.000    0.574    0.579
 init_scf_run                         1  3.0    0.000    0.000    0.573    0.573
 scf_env_initial_rho_setup            1  4.0    0.000    0.000    0.573    0.573
 dbcsr_multiply_generic            1308 10.3    0.024    0.026    0.534    0.541
 transfer_rs2pw_10                  158 12.6    0.110    0.121    0.420    0.460
 dbcsr_complete_redistribute       2794 10.6    0.052    0.063    0.426    0.458
 copy_dbcsr_to_fm                   916  9.5    0.005    0.006    0.372    0.455
 calculate_xc_2nd_deriv_atom        140  9.0    0.049    0.119    0.171    0.450
 pw_scale                           304  9.5    0.397    0.422    0.397    0.422
 mp_irecv_dv                      25095 13.6    0.079    0.416    0.079    0.416
 transfer_pw2rs_10                  146 12.0    0.106    0.117    0.332    0.401
 cp_dbcsr_sm_fm_multiply_core       887  9.6    0.001    0.001    0.354    0.361
 qs_energies_init_hamiltonians        1  3.0    0.000    0.000    0.351    0.351
 mp_alltoall_i22                   3721 11.6    0.251    0.301    0.251    0.301
 grid_integrate_task_list           146 10.0    0.154    0.275    0.154    0.275
 build_core_hamiltonian_matrix        1  4.0    0.000    0.000    0.274    0.274
 overlap_condnum                      1  5.0    0.000    0.000    0.273    0.273
 fft_wrap_pw1pw2_10                 304 12.3    0.010    0.011    0.215    0.254
 parallel_gemm_fm                  1182  8.4    0.001    0.001    0.207    0.253
 parallel_gemm_fm_cosma            1182  9.4    0.206    0.252    0.206    0.252
 copy_fm_to_dbcsr                  1876  9.6    0.004    0.004    0.221    0.247
 rs_gather_matrices                 146 10.0    0.002    0.002    0.121    0.241
 multiply_cannon                   1308 11.3    0.064    0.073    0.206    0.229
 gaVxcgb_GC                         146 10.0    0.073    0.219    0.073    0.219
 make_m2s                          2616 11.3    0.011    0.011    0.195    0.213
 dbcsr_desymmetrize_deep            917 10.5    0.008    0.009    0.206    0.212
 sort_shells                          4  9.0    0.184    0.189    0.184    0.189
 make_images                       2616 12.3    0.024    0.025    0.167    0.186
 tddfpt_orthonormalize_psi1_psi       8  6.9    0.006    0.006    0.172    0.172
 update_ks_atom                     156  8.9    0.010    0.012    0.042    0.169
 mp_bcast_dm                       1890  9.9    0.033    0.163    0.033    0.163
 hybrid_alltoall_any               3533 13.6    0.012    0.013    0.055    0.160
 cp_fm_write_unformatted             21  7.0    0.145    0.154    0.145    0.154
 cp_dbcsr_plus_fm_fm_t              141  9.0    0.001    0.001    0.149    0.151
 tddfpt_write_restart                 1  6.0    0.009    0.148    0.149    0.151
 mp_isendrecv_dv                  13260 12.3    0.020    0.135    0.020    0.135
 scf_post_calculation_gpw             1  3.0    0.000    0.000    0.128    0.128
 write_available_results              1  4.0    0.000    0.000    0.128    0.128
 write_mo_free_results                1  5.0    0.019    0.020    0.128    0.128
 calculate_rho_atom                 314  9.9    0.089    0.127    0.089    0.127
 mp_sum_dv                        12266  9.1    0.095    0.118    0.095    0.118
 tddfpt_orthogonalize_psi1_psi0       8  6.9    0.000    0.000    0.072    0.114
 tddfpt_compute_residual_vects        6  7.0    0.000    0.000    0.108    0.108
 tddfpt_print_nto_analysis            1  6.0    0.001    0.002    0.107    0.107
 tddfpt_apply_energy_diff             7  8.0    0.000    0.000    0.106    0.106
 integrate_four_center_main         296 10.9    0.021    0.034    0.097    0.105
 xc_2nd_deriv_of_r                  280 10.0    0.005    0.014    0.035    0.102
 powell_optimize                  65736 11.0    0.097    0.098    0.097    0.098
 create_qs_kind_set                   1  2.0    0.000    0.000    0.097    0.098
 read_qs_kind                         2  3.0    0.017    0.030    0.097    0.098
 calculate_first_density_matrix       1  5.0    0.003    0.040    0.089    0.089
 mp_alltoall_i11v                  9329 11.6    0.052    0.085    0.052    0.085
 multiply_cannon_loop              1308 12.3    0.015    0.015    0.080    0.084
 integrate_four_center_bin        21001 11.9    0.076    0.084    0.076    0.084
 pw_grid_assign                       4  8.0    0.079    0.083    0.080    0.083
 parser_read_line                  7180  4.0    0.001    0.001    0.080    0.082
 parser_read_line_low                13  5.0    0.003    0.044    0.078    0.080
 calc_screening_functions             1 10.0    0.023    0.023    0.079    0.080
 broadcast_input_information         13  6.0    0.002    0.003    0.075    0.080
 qs_env_update_s_mstruct              1  4.0    0.000    0.000    0.018    0.077
 qs_create_task_list                  1  5.0    0.000    0.000    0.018    0.077
 generate_qs_task_list                1  6.0    0.000    0.000    0.018    0.077
 distribute_tasks                     1  7.0    0.000    0.000    0.018    0.077
 dbcsr_finalize                    5801 11.4    0.013    0.015    0.068    0.077
 create_local_tasks                   1  8.0    0.000    0.000    0.018    0.077
 calculate_ecore_overlap              1  4.0    0.000    0.000    0.059    0.077
 mp_alltoall_l11v                     1  9.0    0.017    0.077    0.017    0.077
 mp_bcast_i_src                      57  7.0    0.065    0.071    0.065    0.071
 offload_free_buffer                164 10.4    0.057    0.068    0.057    0.068
 mp_bcast_b_src                      48  8.4    0.062    0.067    0.062    0.067
 calc_pair_dist_radii                 1 10.0    0.025    0.026    0.066    0.067
 make_images_data                  2616 13.3    0.013    0.014    0.049    0.065
 mp_cart_create                    1233 11.1    0.060    0.064    0.061    0.065
 mp_allgather_i34                  1308 12.3    0.034    0.064    0.034    0.064
 qs_scf_new_mos                      16  5.0    0.000    0.000    0.063    0.063
 qs_scf_loop_do_ot                   16  6.0    0.000    0.000    0.063    0.063
 hirshfeld_integration                1  6.0    0.000    0.001    0.063    0.063
 cp_fm_norm                           2  6.0    0.008    0.062    0.008    0.062
 make_images_sizes                 2616 13.3    0.002    0.002    0.054    0.062
 mp_sum_l                          5145 10.5    0.054    0.062    0.054    0.062
 mp_alltoall_i44                   2616 14.3    0.053    0.060    0.053    0.060
 cp_fm_trace_a1b1t1_aa            10080  8.0    0.017    0.018    0.060    0.060
 mp_cart_sub                       1834 11.5    0.057    0.059    0.057    0.059
 pw_grid_remap                        4  8.0    0.019    0.019    0.040    0.058
 cp_fm_to_fm_columns                142  7.1    0.007    0.057    0.007    0.057
 tddfpt_guess_vectors                 1  6.0    0.000    0.000    0.007    0.057
 ot_scf_mini                         16  7.0    0.000    0.000    0.056    0.056
 calculate_rho_atom_coeff           158  9.6    0.017    0.019    0.055    0.056
 dbcsr_create_new                 18982 11.6    0.038    0.039    0.050    0.052
 -------------------------------------------------------------------------------

 The number of warnings for this run is : 0
 
 -------------------------------------------------------------------------------
  **** **** ******  **  PROGRAM ENDED AT                 2025-07-01 15:18:16.901
 ***** ** ***  *** **   PROGRAM RAN ON                                  n2cn0652
 **    ****   ******    PROGRAM RAN BY                                  metdyn02
 ***** **    ** ** **   PROGRAM PROCESS ID                               1308556
  **** **  *******  **  PROGRAM STOPPED IN /scratch/hpc-prf-metdyn/metdyn02_Remi
                                           /10_MOL/05_MOL/W4-11+ALK/n2h4/mini-SZ
                                           V/TDDFT/RILIM
