 DBCSR| CPU Multiplication driver                                           BLAS (U)
 DBCSR| Multrec recursion limit                                              512 (U)
 DBCSR| Multiplication stack size                                           1000 (D)
 DBCSR| Maximum elements for images                                    UNLIMITED (U)
 DBCSR| Multiplicative factor virtual images                                   1 (U)
 DBCSR| Use multiplication densification                                       T (D)
 DBCSR| Multiplication size stacks                                             3 (U)
 DBCSR| Use memory pool for CPU allocation                                     F (U)
 DBCSR| Number of 3D layers                                               SINGLE (U)
 DBCSR| Use MPI memory allocation                                              F (U)
 DBCSR| Use RMA algorithm                                                      F (U)
 DBCSR| Use Communication thread                                               T (U)
 DBCSR| Communication thread load                                             75 (D)
 DBCSR| MPI: My process id                                                     0
 DBCSR| MPI: Number of processes                                             216
 DBCSR| OMP: Current number of threads                                         4
 DBCSR| OMP: Max number of threads                                             4
 DBCSR| Split modifier for TAS multiplication algorithm                  1.0E+00 (U)


  **** **** ******  **  PROGRAM STARTED AT               2025-04-02 17:56:32.124
 ***** ** ***  *** **   PROGRAM STARTED ON                          i03r02c02s02
 **    ****   ******    PROGRAM STARTED BY                               di38fab
 ***** **    ** ** **   PROGRAM PROCESS ID                               1671812
  **** **  *******  **  PROGRAM STARTED IN /hppfs/scratch/04/di38fab/07_MOL_non_
                                           aug/05_MOL_non_aug/05_MOL/aUKBqsEOTmq
                                           69kFe5R_nOg/5k_set_final_qzvp/IQUJEK/
                                           cc-pVDZ/TDDFT

 CP2K| version string:                 CP2K version 2025.1 (Development Version)
 CP2K| source code revision number:                                  git:d2e611a
 CP2K| cp2kflags: omp libint fftw3 libxc parallel scalapack max_contr=4         
 CP2K| is freely available from                            https://www.cp2k.org/
 CP2K| Program compiled at                       Thu 06 Mar 2025 05:09:20 PM CET
 CP2K| Program compiled on                                               login02
 CP2K| Program compiled for                                        Supermuc-foss
 CP2K| Data directory path                  /hppfs/work/pn36zo/di38fab/cp2k/data
 CP2K| Input file name                                                    GW.inp

 GLOBAL| Force Environment number                                              1
 GLOBAL| Basis set file name            /hppfs/scratch/04/di38fab/04_TMD/BASIS_A
 GLOBAL| Potential file name            /hppfs/work/pn36zo/di38fab/cp2k/data/ALL
 GLOBAL| MM Potential file name                                     MM_POTENTIAL
 GLOBAL| Coordinate file name                                      __STD_INPUT__
 GLOBAL| Method name                                                        CP2K
 GLOBAL| Project name                                                       MoS2
 GLOBAL| Run type                                                         ENERGY
 GLOBAL| FFT library                                                       FFTW3
 GLOBAL| Diagonalization library                                       ScaLAPACK
 GLOBAL| DGEMM library                                                      BLAS
 GLOBAL| Orthonormality check for eigenvectors                          DISABLED
 GLOBAL| Matrix multiplication library                                 ScaLAPACK
 GLOBAL| All-to-all communication in single precision                          F
 GLOBAL| FFTs using library dependent lengths                                  F
 GLOBAL| Grid backend                                                       AUTO
 GLOBAL| Global print level                                               MEDIUM
 GLOBAL| MPI I/O enabled                                                       T
 GLOBAL| Total number of message passing processes                           216
 GLOBAL| Number of threads for this process                                    4
 GLOBAL| This output is from process                                           0
 GLOBAL| OpenMP stack size per thread (OMP_STACKSIZE)                    default
 GLOBAL| CPU model name             Intel(R) Xeon(R) Platinum 8174 CPU @ 3.10GHz

 MEMORY| system memory details [Kb]
 MEMORY|                        rank 0           min           max       average
 MEMORY| MemTotal             98436896      98429616      98436896      98436282
 MEMORY| MemFree              85726004      85296348      85726004      85443294
 MEMORY| Buffers                     0             0             0             0
 MEMORY| Cached                2321280       2321280       2369888       2360067
 MEMORY| Slab                   932520        932520        985344        956795
 MEMORY| SReclaimable           211668        208912        224932        216020
 MEMORY| MemLikelyFree        88258952      87882696      88258952      88019382


 *** Fundamental physical constants (SI units) ***

 *** Literature: B. J. Mohr and B. N. Taylor,
 ***             CODATA recommended values of the fundamental physical
 ***             constants: 2006, Web Version 5.1
 ***             http://physics.nist.gov/constants

 Speed of light in vacuum [m/s]                             2.99792458000000E+08
 Magnetic constant or permeability of vacuum [N/A**2]       1.25663706143592E-06
 Electric constant or permittivity of vacuum [F/m]          8.85418781762039E-12
 Planck constant (h) [J*s]                                  6.62606896000000E-34
 Planck constant (h-bar) [J*s]                              1.05457162825177E-34
 Elementary charge [C]                                      1.60217648700000E-19
 Electron mass [kg]                                         9.10938215000000E-31
 Electron g factor [ ]                                     -2.00231930436220E+00
 Proton mass [kg]                                           1.67262163700000E-27
 Fine-structure constant                                    7.29735253760000E-03
 Rydberg constant [1/m]                                     1.09737315685270E+07
 Avogadro constant [1/mol]                                  6.02214179000000E+23
 Boltzmann constant [J/K]                                   1.38065040000000E-23
 Atomic mass unit [kg]                                      1.66053878200000E-27
 Bohr radius [m]                                            5.29177208590000E-11

 *** Conversion factors ***

 [u] -> [a.u.]                                              1.82288848426455E+03
 [Angstrom] -> [Bohr] = [a.u.]                              1.88972613288564E+00
 [a.u.] = [Bohr] -> [Angstrom]                              5.29177208590000E-01
 [a.u.] -> [s]                                              2.41888432650478E-17
 [a.u.] -> [fs]                                             2.41888432650478E-02
 [a.u.] -> [J]                                              4.35974393937059E-18
 [a.u.] -> [N]                                              8.23872205491840E-08
 [a.u.] -> [K]                                              3.15774647902944E+05
 [a.u.] -> [kJ/mol]                                         2.62549961709828E+03
 [a.u.] -> [kcal/mol]                                       6.27509468713739E+02
 [a.u.] -> [Pa]                                             2.94210107994716E+13
 [a.u.] -> [bar]                                            2.94210107994716E+08
 [a.u.] -> [atm]                                            2.90362800883016E+08
 [a.u.] -> [eV]                                             2.72113838565563E+01
 [a.u.] -> [Hz]                                             6.57968392072181E+15
 [a.u.] -> [1/cm] (wave numbers)                            2.19474631370540E+05
 [a.u./Bohr**2] -> [1/cm]                                   5.14048714338585E+03
 

 CELL_TOP| Volume [angstrom^3]:                                     27000.000000
 CELL_TOP| Vector a [angstrom    30.000     0.000     0.000   |a| =    30.000000
 CELL_TOP| Vector b [angstrom     0.000    30.000     0.000   |b| =    30.000000
 CELL_TOP| Vector c [angstrom     0.000     0.000    30.000   |c| =    30.000000
 CELL_TOP| Angle (b,c), alpha [degree]:                                90.000000
 CELL_TOP| Angle (a,c), beta  [degree]:                                90.000000
 CELL_TOP| Angle (a,b), gamma [degree]:                                90.000000
 CELL_TOP| Numerically orthorhombic:                                         YES
 CELL_TOP| Periodicity                                                      NONE

 GENERATE|  Preliminary Number of Bonds generated:                             0
 GENERATE|  Achieved consistency in connectivity generation.

 CELL| Volume [angstrom^3]:                                         27000.000000
 CELL| Vector a [angstrom]:      30.000     0.000     0.000   |a| =    30.000000
 CELL| Vector b [angstrom]:       0.000    30.000     0.000   |b| =    30.000000
 CELL| Vector c [angstrom]:       0.000     0.000    30.000   |c| =    30.000000
 CELL| Angle (b,c), alpha [degree]:                                    90.000000
 CELL| Angle (a,c), beta  [degree]:                                    90.000000
 CELL| Angle (a,b), gamma [degree]:                                    90.000000
 CELL| Numerically orthorhombic:                                             YES
 CELL| Periodicity                                                          NONE

 CELL_REF| Volume [angstrom^3]:                                     27000.000000
 CELL_REF| Vector a [angstrom    30.000     0.000     0.000   |a| =    30.000000
 CELL_REF| Vector b [angstrom     0.000    30.000     0.000   |b| =    30.000000
 CELL_REF| Vector c [angstrom     0.000     0.000    30.000   |c| =    30.000000
 CELL_REF| Angle (b,c), alpha [degree]:                                90.000000
 CELL_REF| Angle (a,c), beta  [degree]:                                90.000000
 CELL_REF| Angle (a,b), gamma [degree]:                                90.000000
 CELL_REF| Numerically orthorhombic:                                         YES
 CELL_REF| Periodicity                                                      NONE

 *******************************************************************************
 *******************************************************************************
 **                                                                           **
 **     #####                         ##              ##                      **
 **    ##   ##            ##          ##              ##                      **
 **   ##     ##                       ##            ######                    **
 **   ##     ##  ##   ##  ##   #####  ##  ##   ####   ##    #####    #####    **
 **   ##     ##  ##   ##  ##  ##      ## ##   ##      ##   ##   ##  ##   ##   **
 **   ##  ## ##  ##   ##  ##  ##      ####     ###    ##   ######   ######    **
 **    ##  ###   ##   ##  ##  ##      ## ##      ##   ##   ##       ##        **
 **     #######   #####   ##   #####  ##  ##  ####    ##    #####   ##        **
 **           ##                                                    ##        **
 **                                                                           **
 **                                                ... make the atoms dance   **
 **                                                                           **
 **            Copyright (C) by CP2K developers group (2000-2025)             **
 **                      J. Chem. Phys. 152, 194103 (2020)                    **
 **                                                                           **
 *******************************************************************************

 DFT| Spin restricted Kohn-Sham (RKS) calculation                            RKS
 DFT| Multiplicity                                                             1
 DFT| Number of spin states                                                    1
 DFT| Charge                                                                   0
 DFT| Self-interaction correction (SIC)                                       NO
 DFT| Cutoffs: density                                              1.000000E-10
 DFT|          gradient                                             1.000000E-10
 DFT|          tau                                                  1.000000E-10
 DFT|          cutoff_smoothing_range                               0.000000E+00
 DFT| XC density smoothing                                                  NONE
 DFT| XC derivatives                                                          PW

 FUNCTIONAL| PBE:
 FUNCTIONAL| J.P.Perdew, K.Burke, M.Ernzerhof, Phys. Rev. Letter, vol. 77, n 18,
 FUNCTIONAL|  pp. 3865-3868, (1996)sx=0.750sc=1.000{spin unpolarized}           


 QS| Method:                                                                GAPW
 QS| Density plane wave grid type                        NON-SPHERICAL FULLSPACE
 QS| Number of grid levels:                                                    4
 QS| Density cutoff [a.u.]:                                                250.0
 QS| Multi grid cutoff [a.u.]: 1) grid level                               250.0
 QS|                           2) grid level                                83.3
 QS|                           3) grid level                                27.8
 QS|                           4) grid level                                 9.3
 QS| Grid level progression factor:                                          3.0
 QS| Relative density cutoff [a.u.]:                                        50.0
 QS| Interaction thresholds: eps_pgf_orb:                                1.0E-12
 QS|                         eps_filter_matrix:                          0.0E+00
 QS|                         eps_core_charge:                            1.0E-14
 QS|                         eps_rho_gspace:                             1.0E-12
 QS|                         eps_rho_rspace:                             1.0E-12
 QS|                         eps_gvg_rspace:                             1.0E-06
 QS|                         eps_ppl:                                    1.0E-02
 QS|                         eps_ppnl:                                   1.0E-08
 QS| GAPW|      One center basis from orbital basis primitives
 QS| GAPW|                   eps_fit:                                    1.0E-04
 QS| GAPW|                   eps_iso:                                    1.0E-12
 QS| GAPW|                   eps_svd:                                    1.0E-08
 QS| GAPW|                   eps_cpc:                                    1.0E-12
 QS| GAPW|   atom-r-grid: quadrature:                                     GC_LOG
 QS| GAPW|      atom-s-grid:  max l :                                          4
 QS| GAPW|      max_l_rho0 :                                                   2


 ATOMIC KIND INFORMATION

  1. Atomic kind: N                                     Number of atoms:       4

     Orbital Basis Set                                                   cc-pVDZ

       Number of orbital shell sets:                                           3
       Number of orbital shells:                                               6
       Number of primitive Cartesian functions:                               14
       Number of Cartesian basis functions:                                   15
       Number of spherical basis functions:                                   14
       Norm type:                                                              2

       Normalised Cartesian orbitals:

                        Set   Shell   Orbital            Exponent    Coefficient

                          1       1    1px              13.550000       1.479258
                                                         2.917000       1.180072
                                                         0.797300       0.548036
                                                         0.218500       0.098423
                          1       1    1py              13.550000       1.479258
                                                         2.917000       1.180072
                                                         0.797300       0.548036
                                                         0.218500       0.098423
                          1       1    1pz              13.550000       1.479258
                                                         2.917000       1.180072
                                                         0.797300       0.548036
                                                         0.218500       0.098423

                          1       2    2px              13.550000       0.000000
                                                         2.917000       0.000000
                                                         0.797300       0.000000
                                                         0.218500       0.212939
                          1       2    2py              13.550000       0.000000
                                                         2.917000       0.000000
                                                         0.797300       0.000000
                                                         0.218500       0.212939
                          1       2    2pz              13.550000       0.000000
                                                         2.917000       0.000000
                                                         0.797300       0.000000
                                                         0.218500       0.212939

                          2       1    1s             9046.000000       0.462754
                                                      1357.000000       0.858723
                                                       309.300000       1.440591
                                                        87.730000       2.108533
                                                        28.560000       2.454153
                                                        10.210000       1.825915
                                                         3.838000       0.543758
                                                         0.746600       0.008838
                                                         0.224800      -0.000666

                          2       2    2s             9046.000000      -0.101145
                                                      1357.000000      -0.192492
                                                       309.300000      -0.314968
                                                        87.730000      -0.501437
                                                        28.560000      -0.593976
                                                        10.210000      -0.643503
                                                         3.838000      -0.238093
                                                         0.746600       0.314268
                                                         0.224800       0.134678

                          2       3    3s             9046.000000       0.000000
                                                      1357.000000       0.000000
                                                       309.300000       0.000000
                                                        87.730000       0.000000
                                                        28.560000       0.000000
                                                        10.210000       0.000000
                                                         3.838000       0.000000
                                                         0.746600       0.000000
                                                         0.224800       0.232679

                          3       1    1dx2              0.817000       1.155575
                          3       1    1dxy              0.817000       2.001514
                          3       1    1dxz              0.817000       2.001514
                          3       1    1dy2              0.817000       1.155575
                          3       1    1dyz              0.817000       2.001514
                          3       1    1dz2              0.817000       1.155575

     RI Auxiliary Basis Set                                        cc-pVDZ-RIFIT

       Number of orbital shell sets:                                          18
       Number of orbital shells:                                              18
       Number of primitive Cartesian functions:                               18
       Number of Cartesian basis functions:                                   66
       Number of spherical basis functions:                                   56
       Norm type:                                                              2

       Normalised Cartesian orbitals:

                        Set   Shell   Orbital            Exponent    Coefficient

                          1       1    1s                0.327261       0.308376

                          2       1    1px               0.461104       0.541613
                          2       1    1py               0.461104       0.541613
                          2       1    1pz               0.461104       0.541613

                          3       1    1dx2              0.477850       0.452033
                          3       1    1dxy              0.477850       0.782943
                          3       1    1dxz              0.477850       0.782943
                          3       1    1dy2              0.477850       0.452033
                          3       1    1dyz              0.477850       0.782943
                          3       1    1dz2              0.477850       0.452033

                          4       1    1s                0.723539       0.559122

                          5       1    1px               1.094610       1.595932
                          5       1    1py               1.094610       1.595932
                          5       1    1pz               1.094610       1.595932

                          6       1    1s                1.123240       0.777615

                          7       1    1dx2              1.285370       2.553929
                          7       1    1dxy              1.285370       4.423534
                          7       1    1dxz              1.285370       4.423534
                          7       1    1dy2              1.285370       2.553929
                          7       1    1dyz              1.285370       4.423534
                          7       1    1dz2              1.285370       2.553929

                          8       1    1fx3              1.334730       2.818965
                          8       1    1fx2y             1.334730       6.303397
                          8       1    1fx2z             1.334730       6.303397
                          8       1    1fxy2             1.334730       6.303397
                          8       1    1fxyz             1.334730      10.917804
                          8       1    1fxz2             1.334730       6.303397
                          8       1    1fy3              1.334730       2.818965
                          8       1    1fy2z             1.334730       6.303397
                          8       1    1fyz2             1.334730       6.303397
                          8       1    1fz3              1.334730       2.818965

                          9       1    1s                2.344260       1.350251

                         10       1    1px               2.533640       4.556393
                         10       1    1py               2.533640       4.556393
                         10       1    1pz               2.533640       4.556393

                         11       1    1fx3              3.401180      23.127095
                         11       1    1fx2y             3.401180      51.713757
                         11       1    1fx2z             3.401180      51.713757
                         11       1    1fxy2             3.401180      51.713757
                         11       1    1fxyz             3.401180      89.570854
                         11       1    1fxz2             3.401180      51.713757
                         11       1    1fy3              3.401180      23.127095
                         11       1    1fy2z             3.401180      51.713757
                         11       1    1fyz2             3.401180      51.713757
                         11       1    1fz3              3.401180      23.127095

                         12       1    1dx2              3.428160      14.215638
                         12       1    1dxy              3.428160      24.622207
                         12       1    1dxz              3.428160      24.622207
                         12       1    1dy2              3.428160      14.215638
                         12       1    1dyz              3.428160      24.622207
                         12       1    1dz2              3.428160      14.215638

                         13       1    1s                7.624360       3.270112

                         14       1    1px               8.552990      20.849111
                         14       1    1py               8.552990      20.849111
                         14       1    1pz               8.552990      20.849111

                         15       1    1dx2             12.327800     133.493224
                         15       1    1dxy             12.327800     231.217046
                         15       1    1dxz             12.327800     231.217046
                         15       1    1dy2             12.327800     133.493224
                         15       1    1dyz             12.327800     231.217046
                         15       1    1dz2             12.327800     133.493224

                         16       1    1s               20.467900       6.858278

                         17       1    1px              29.237300      96.908455
                         17       1    1py              29.237300      96.908455
                         17       1    1pz              29.237300      96.908455

                         18       1    1s               87.686400      20.422517

       Atomic covalent radius [Angstrom]:                                  0.750

       Atomic van der Waals radius [Angstrom]:                             1.550

     The atoms of this atomic kind are PAW atoms (GAPW):
       Hard Gaussian function radius:                                      1.512
       Rho0 radius:                                                        1.512
       Maximum GTO radius used for PAW projector construction:            24.566

     GAPW Soft Basis Set                                            cc-pVDZ_soft

       Number of orbital shell sets:                                           3
       Number of orbital shells:                                               6
       Number of primitive Cartesian functions:                                7
       Number of Cartesian basis functions:                                   15
       Number of spherical basis functions:                                   14
       Norm type:                                                              2

       Normalised Cartesian orbitals:

                        Set   Shell   Orbital            Exponent    Coefficient

                          1       1    1px               2.917000       1.180072
                                                         0.797300       0.548036
                                                         0.218500       0.098423
                          1       1    1py               2.917000       1.180072
                                                         0.797300       0.548036
                                                         0.218500       0.098423
                          1       1    1pz               2.917000       1.180072
                                                         0.797300       0.548036
                                                         0.218500       0.098423

                          1       2    2px               2.917000       0.000000
                                                         0.797300       0.000000
                                                         0.218500       0.212939
                          1       2    2py               2.917000       0.000000
                                                         0.797300       0.000000
                                                         0.218500       0.212939
                          1       2    2pz               2.917000       0.000000
                                                         0.797300       0.000000
                                                         0.218500       0.212939

                          2       1    1s                3.838000       0.543758
                                                         0.746600       0.008838
                                                         0.224800      -0.000666

                          2       2    2s                3.838000      -0.238093
                                                         0.746600       0.314268
                                                         0.224800       0.134678

                          2       3    3s                3.838000       0.000000
                                                         0.746600       0.000000
                                                         0.224800       0.232679

                          3       1    1dx2              0.817000       1.155575
                          3       1    1dxy              0.817000       2.001514
                          3       1    1dxz              0.817000       2.001514
                          3       1    1dy2              0.817000       1.155575
                          3       1    1dyz              0.817000       2.001514
                          3       1    1dz2              0.817000       1.155575

     AE Potential information for                                            ALL

       Description:                                       All-electron potential
                                          Krack, Parrinello, PCCP 2, 2105 (2000)

       Gaussian exponent of the core charge distribution:               5.979100
       Electronic configuration (s p d ...):                           4   3   0

  2. Atomic kind: O                                     Number of atoms:       1

     Orbital Basis Set                                                   cc-pVDZ

       Number of orbital shell sets:                                           3
       Number of orbital shells:                                               6
       Number of primitive Cartesian functions:                               14
       Number of Cartesian basis functions:                                   15
       Number of spherical basis functions:                                   14
       Norm type:                                                              2

       Normalised Cartesian orbitals:

                        Set   Shell   Orbital            Exponent    Coefficient

                          1       1    1px              17.700000       2.226162
                                                         3.854000       1.761976
                                                         1.046000       0.767079
                                                         0.275300       0.130905
                          1       1    1py              17.700000       2.226162
                                                         3.854000       1.761976
                                                         1.046000       0.767079
                                                         0.275300       0.130905
                          1       1    1pz              17.700000       2.226162
                                                         3.854000       1.761976
                                                         1.046000       0.767079
                                                         0.275300       0.130905

                          1       2    2px              17.700000       0.000000
                                                         3.854000       0.000000
                                                         1.046000       0.000000
                                                         0.275300       0.284248
                          1       2    2py              17.700000       0.000000
                                                         3.854000       0.000000
                                                         1.046000       0.000000
                                                         0.275300       0.284248
                          1       2    2pz              17.700000       0.000000
                                                         3.854000       0.000000
                                                         1.046000       0.000000
                                                         0.275300       0.284248

                          2       1    1s            11720.000000       0.569986
                                                      1759.000000       1.058881
                                                       400.800000       1.777168
                                                       113.700000       2.600710
                                                        37.030000       3.028357
                                                        13.270000       2.223504
                                                         5.025000       0.648119
                                                         1.013000       0.011124
                                                         0.302300      -0.000751

                          2       2    2s            11720.000000      -0.128448
                                                      1759.000000      -0.244491
                                                       400.800000      -0.400097
                                                       113.700000      -0.638166
                                                        37.030000      -0.758785
                                                        13.270000      -0.819649
                                                         5.025000      -0.279757
                                                         1.013000       0.401106
                                                         0.302300       0.166422

                          2       3    3s            11720.000000       0.000000
                                                      1759.000000       0.000000
                                                       400.800000       0.000000
                                                       113.700000       0.000000
                                                        37.030000       0.000000
                                                        13.270000       0.000000
                                                         5.025000       0.000000
                                                         1.013000       0.000000
                                                         0.302300       0.290562

                          3       1    1dx2              1.185000       2.215218
                          3       1    1dxy              1.185000       3.836871
                          3       1    1dxz              1.185000       3.836871
                          3       1    1dy2              1.185000       2.215218
                          3       1    1dyz              1.185000       3.836871
                          3       1    1dz2              1.185000       2.215218

     RI Auxiliary Basis Set                                        cc-pVDZ-RIFIT

       Number of orbital shell sets:                                          18
       Number of orbital shells:                                              18
       Number of primitive Cartesian functions:                               18
       Number of Cartesian basis functions:                                   66
       Number of spherical basis functions:                                   56
       Norm type:                                                              2

       Normalised Cartesian orbitals:

                        Set   Shell   Orbital            Exponent    Coefficient

                          1       1    1s                0.421376       0.372746

                          2       1    1dx2              0.592201       0.658007
                          2       1    1dxy              0.592201       1.139701
                          2       1    1dxz              0.592201       1.139701
                          2       1    1dy2              0.592201       0.658007
                          2       1    1dyz              0.592201       1.139701
                          2       1    1dz2              0.592201       0.658007

                          3       1    1px               0.612763       0.772780
                          3       1    1py               0.612763       0.772780
                          3       1    1pz               0.612763       0.772780

                          4       1    1s                0.905061       0.661330

                          5       1    1s                1.396380       0.915509

                          6       1    1px               1.403870       2.178205
                          6       1    1py               1.403870       2.178205
                          6       1    1pz               1.403870       2.178205

                          7       1    1fx3              1.790210       5.457433
                          7       1    1fx2y             1.790210      12.203191
                          7       1    1fx2z             1.790210      12.203191
                          7       1    1fxy2             1.790210      12.203191
                          7       1    1fxyz             1.790210      21.136547
                          7       1    1fxz2             1.790210      12.203191
                          7       1    1fy3              1.790210       5.457433
                          7       1    1fy2z             1.790210      12.203191
                          7       1    1fyz2             1.790210      12.203191
                          7       1    1fz3              1.790210       5.457433

                          8       1    1dx2              1.812210       4.658803
                          8       1    1dxy              1.812210       8.069284
                          8       1    1dxz              1.812210       8.069284
                          8       1    1dy2              1.812210       4.658803
                          8       1    1dyz              1.812210       8.069284
                          8       1    1dz2              1.812210       4.658803

                          9       1    1s                2.939600       1.600023

                         10       1    1px               3.205940       6.114829
                         10       1    1py               3.205940       6.114829
                         10       1    1pz               3.205940       6.114829

                         11       1    1fx3              4.221940      37.614611
                         11       1    1fx2y             4.221940      84.108828
                         11       1    1fx2z             4.221940      84.108828
                         11       1    1fxy2             4.221940      84.108828
                         11       1    1fxyz             4.221940     145.680763
                         11       1    1fxz2             4.221940      84.108828
                         11       1    1fy3              4.221940      37.614611
                         11       1    1fy2z             4.221940      84.108828
                         11       1    1fyz2             4.221940      84.108828
                         11       1    1fz3              4.221940      37.614611

                         12       1    1dx2              4.520870      23.070021
                         12       1    1dxy              4.520870      39.958448
                         12       1    1dxz              4.520870      39.958448
                         12       1    1dy2              4.520870      23.070021
                         12       1    1dyz              4.520870      39.958448
                         12       1    1dz2              4.520870      23.070021

                         13       1    1s                9.551480       3.872247

                         14       1    1px              10.881700      28.171568
                         14       1    1py              10.881700      28.171568
                         14       1    1pz              10.881700      28.171568

                         15       1    1dx2             15.251100     193.725371
                         15       1    1dxy             15.251100     335.542185
                         15       1    1dxz             15.251100     335.542185
                         15       1    1dy2             15.251100     193.725371
                         15       1    1dyz             15.251100     335.542185
                         15       1    1dz2             15.251100     193.725371

                         16       1    1s               25.578000       8.106064

                         17       1    1px              36.129200     126.259196
                         17       1    1py              36.129200     126.259196
                         17       1    1pz              36.129200     126.259196

                         18       1    1s              109.461000      24.118742

       Atomic covalent radius [Angstrom]:                                  0.730

       Atomic van der Waals radius [Angstrom]:                             1.520

     The atoms of this atomic kind are PAW atoms (GAPW):
       Hard Gaussian function radius:                                      1.512
       Rho0 radius:                                                        1.512
       Maximum GTO radius used for PAW projector construction:            24.566

     GAPW Soft Basis Set                                            cc-pVDZ_soft

       Number of orbital shell sets:                                           3
       Number of orbital shells:                                               6
       Number of primitive Cartesian functions:                                6
       Number of Cartesian basis functions:                                   15
       Number of spherical basis functions:                                   14
       Norm type:                                                              2

       Normalised Cartesian orbitals:

                        Set   Shell   Orbital            Exponent    Coefficient

                          1       1    1px               3.854000       1.761976
                                                         1.046000       0.767079
                                                         0.275300       0.130905
                          1       1    1py               3.854000       1.761976
                                                         1.046000       0.767079
                                                         0.275300       0.130905
                          1       1    1pz               3.854000       1.761976
                                                         1.046000       0.767079
                                                         0.275300       0.130905

                          1       2    2px               3.854000       0.000000
                                                         1.046000       0.000000
                                                         0.275300       0.284248
                          1       2    2py               3.854000       0.000000
                                                         1.046000       0.000000
                                                         0.275300       0.284248
                          1       2    2pz               3.854000       0.000000
                                                         1.046000       0.000000
                                                         0.275300       0.284248

                          2       1    1s                1.013000       0.011124
                                                         0.302300      -0.000751

                          2       2    2s                1.013000       0.401106
                                                         0.302300       0.166422

                          2       3    3s                1.013000       0.000000
                                                         0.302300       0.290562

                          3       1    1dx2              1.185000       2.215218
                          3       1    1dxy              1.185000       3.836871
                          3       1    1dxz              1.185000       3.836871
                          3       1    1dy2              1.185000       2.215218
                          3       1    1dyz              1.185000       3.836871
                          3       1    1dz2              1.185000       2.215218

     AE Potential information for                                            ALL

       Description:                                       All-electron potential
                                          Krack, Parrinello, PCCP 2, 2105 (2000)

       Gaussian exponent of the core charge distribution:               8.154466
       Electronic configuration (s p d ...):                           4   4   0

  3. Atomic kind: H                                     Number of atoms:      10

     Orbital Basis Set                                                   cc-pVDZ

       Number of orbital shell sets:                                           2
       Number of orbital shells:                                               3
       Number of primitive Cartesian functions:                                5
       Number of Cartesian basis functions:                                    5
       Number of spherical basis functions:                                    5
       Norm type:                                                              2

       Normalised Cartesian orbitals:

                        Set   Shell   Orbital            Exponent    Coefficient

                          1       1    1s               13.010000       0.096107
                                                         1.962000       0.163020
                                                         0.444600       0.185545
                                                         0.122000       0.073744

                          1       2    2s               13.010000       0.000000
                                                         1.962000       0.000000
                                                         0.444600       0.000000
                                                         0.122000       0.147123

                          2       1    1px               0.727000       0.956881
                          2       1    1py               0.727000       0.956881
                          2       1    1pz               0.727000       0.956881

     RI Auxiliary Basis Set                                        cc-pVDZ-RIFIT

       Number of orbital shell sets:                                           6
       Number of orbital shells:                                               6
       Number of primitive Cartesian functions:                                6
       Number of Cartesian basis functions:                                   15
       Number of spherical basis functions:                                   14
       Norm type:                                                              2

       Normalised Cartesian orbitals:

                        Set   Shell   Orbital            Exponent    Coefficient

                          1       1    1s                0.291662       0.282859

                          2       1    1px               0.986401       1.401222
                          2       1    1py               0.986401       1.401222
                          2       1    1pz               0.986401       1.401222

                          3       1    1s                1.142965       0.787834

                          4       1    1dx2              1.172083       2.173136
                          4       1    1dxy              1.172083       3.763982
                          4       1    1dxz              1.172083       3.763982
                          4       1    1dy2              1.172083       2.173136
                          4       1    1dyz              1.172083       3.763982
                          4       1    1dz2              1.172083       2.173136

                          5       1    1px               1.914964       3.211004
                          5       1    1py               1.914964       3.211004
                          5       1    1pz               1.914964       3.211004

                          6       1    1s                5.115890       2.424381

       Atomic covalent radius [Angstrom]:                                  0.320

       Atomic van der Waals radius [Angstrom]:                             1.090

     The atoms of this atomic kind are PAW atoms (GAPW):
       Hard Gaussian function radius:                                      1.200
       Rho0 radius:                                                        1.200
       Maximum GTO radius used for PAW projector construction:            24.566

     GAPW Soft Basis Set                                            cc-pVDZ_soft

       Number of orbital shell sets:                                           2
       Number of orbital shells:                                               3
       Number of primitive Cartesian functions:                                4
       Number of Cartesian basis functions:                                    5
       Number of spherical basis functions:                                    5
       Norm type:                                                              2

       Normalised Cartesian orbitals:

                        Set   Shell   Orbital            Exponent    Coefficient

                          1       1    1s                1.962000       0.163020
                                                         0.444600       0.185545
                                                         0.122000       0.073744

                          1       2    2s                1.962000       0.000000
                                                         0.444600       0.000000
                                                         0.122000       0.147123

                          2       1    1px               0.727000       0.956881
                          2       1    1py               0.727000       0.956881
                          2       1    1pz               0.727000       0.956881

     AE Potential information for                                            ALL

       Description:                                       All-electron potential
                                          Krack, Parrinello, PCCP 2, 2105 (2000)

       Gaussian exponent of the core charge distribution:              12.500000
       Electronic configuration (s p d ...):                           1   0   0

  4. Atomic kind: C                                     Number of atoms:       5

     Orbital Basis Set                                                   cc-pVDZ

       Number of orbital shell sets:                                           3
       Number of orbital shells:                                               6
       Number of primitive Cartesian functions:                               14
       Number of Cartesian basis functions:                                   15
       Number of spherical basis functions:                                   14
       Norm type:                                                              2

       Normalised Cartesian orbitals:

                        Set   Shell   Orbital            Exponent    Coefficient

                          1       1    1px               9.439000       0.898722
                                                         2.002000       0.711071
                                                         0.545600       0.339917
                                                         0.151700       0.063270
                          1       1    1py               9.439000       0.898722
                                                         2.002000       0.711071
                                                         0.545600       0.339917
                                                         0.151700       0.063270
                          1       1    1pz               9.439000       0.898722
                                                         2.002000       0.711071
                                                         0.545600       0.339917
                                                         0.151700       0.063270

                          1       2    2px               9.439000       0.000000
                                                         2.002000       0.000000
                                                         0.545600       0.000000
                                                         0.151700       0.134950
                          1       2    2py               9.439000       0.000000
                                                         2.002000       0.000000
                                                         0.545600       0.000000
                                                         0.151700       0.134950
                          1       2    2pz               9.439000       0.000000
                                                         2.002000       0.000000
                                                         0.545600       0.000000
                                                         0.151700       0.134950

                          2       1    1s             6665.000000       0.363803
                                                      1000.000000       0.675392
                                                       228.000000       1.132301
                                                        64.710000       1.654004
                                                        21.060000       1.924978
                                                         7.495000       1.448149
                                                         2.797000       0.439427
                                                         0.521500       0.006650
                                                         0.159600      -0.000574

                          2       2    2s             6665.000000      -0.076756
                                                      1000.000000      -0.146257
                                                       228.000000      -0.239407
                                                        64.710000      -0.379069
                                                        21.060000      -0.448104
                                                         7.495000      -0.484201
                                                         2.797000      -0.196168
                                                         0.521500       0.238162
                                                         0.159600       0.104468

                          2       3    3s             6665.000000       0.000000
                                                      1000.000000       0.000000
                                                       228.000000       0.000000
                                                        64.710000       0.000000
                                                        21.060000       0.000000
                                                         7.495000       0.000000
                                                         2.797000       0.000000
                                                         0.521500       0.000000
                                                         0.159600       0.179964

                          3       1    1dx2              0.550000       0.578155
                          3       1    1dxy              0.550000       1.001394
                          3       1    1dxz              0.550000       1.001394
                          3       1    1dy2              0.550000       0.578155
                          3       1    1dyz              0.550000       1.001394
                          3       1    1dz2              0.550000       0.578155

     RI Auxiliary Basis Set                                        cc-pVDZ-RIFIT

       Number of orbital shell sets:                                          18
       Number of orbital shells:                                              18
       Number of primitive Cartesian functions:                               18
       Number of Cartesian basis functions:                                   66
       Number of spherical basis functions:                                   56
       Norm type:                                                              2

       Normalised Cartesian orbitals:

                        Set   Shell   Orbital            Exponent    Coefficient

                          1       1    1s                0.206796       0.218558

                          2       1    1px               0.321667       0.345301
                          2       1    1py               0.321667       0.345301
                          2       1    1pz               0.321667       0.345301

                          3       1    1dx2              0.340842       0.250252
                          3       1    1dxy              0.340842       0.433449
                          3       1    1dxz              0.340842       0.433449
                          3       1    1dy2              0.340842       0.250252
                          3       1    1dyz              0.340842       0.433449
                          3       1    1dz2              0.340842       0.250252

                          4       1    1s                0.409072       0.364552

                          5       1    1px               0.754465       1.002280
                          5       1    1py               0.754465       1.002280
                          5       1    1pz               0.754465       1.002280

                          6       1    1s                0.782697       0.593069

                          7       1    1fx3              0.895756       1.149162
                          7       1    1fx2y             0.895756       2.569605
                          7       1    1fx2z             0.895756       2.569605
                          7       1    1fxy2             0.895756       2.569605
                          7       1    1fxyz             0.895756       4.450686
                          7       1    1fxz2             0.895756       2.569605
                          7       1    1fy3              0.895756       1.149162
                          7       1    1fy2z             0.895756       2.569605
                          7       1    1fyz2             0.895756       2.569605
                          7       1    1fz3              0.895756       1.149162

                          8       1    1dx2              0.922515       1.429266
                          8       1    1dxy              0.922515       2.475561
                          8       1    1dxz              0.922515       2.475561
                          8       1    1dy2              0.922515       1.429266
                          8       1    1dyz              0.922515       2.475561
                          8       1    1dz2              0.922515       1.429266

                          9       1    1s                1.513330       0.972434

                         10       1    1px               1.720600       2.808924
                         10       1    1py               1.720600       2.808924
                         10       1    1pz               1.720600       2.808924

                         11       1    1dx2              2.678440       9.230024
                         11       1    1dxy              2.678440      15.986870
                         11       1    1dxz              2.678440      15.986870
                         11       1    1dy2              2.678440       9.230024
                         11       1    1dyz              2.678440      15.986870
                         11       1    1dz2              2.678440       9.230024

                         12       1    1fx3              2.742930      14.254027
                         12       1    1fx2y             2.742930      31.872974
                         12       1    1fx2z             2.742930      31.872974
                         12       1    1fxy2             2.742930      31.872974
                         12       1    1fxyz             2.742930      55.205610
                         12       1    1fxz2             2.742930      31.872974
                         12       1    1fy3              2.742930      14.254027
                         12       1    1fy2z             2.742930      31.872974
                         12       1    1fyz2             2.742930      31.872974
                         12       1    1fz3              2.742930      14.254027

                         13       1    1s                4.772770       2.301378

                         14       1    1px               6.005230      13.399918
                         14       1    1py               6.005230      13.399918
                         14       1    1pz               6.005230      13.399918

                         15       1    1dx2             10.171500      95.352748
                         15       1    1dxy             10.171500     165.155804
                         15       1    1dxz             10.171500     165.155804
                         15       1    1dy2             10.171500      95.352748
                         15       1    1dyz             10.171500     165.155804
                         15       1    1dz2             10.171500      95.352748

                         16       1    1s               13.804500       5.104176

                         17       1    1px              20.885100      63.640823
                         17       1    1py              20.885100      63.640823
                         17       1    1pz              20.885100      63.640823

                         18       1    1s               62.745300      15.888979

       Atomic covalent radius [Angstrom]:                                  0.770

       Atomic van der Waals radius [Angstrom]:                             1.700

     The atoms of this atomic kind are PAW atoms (GAPW):
       Hard Gaussian function radius:                                      1.512
       Rho0 radius:                                                        1.512
       Maximum GTO radius used for PAW projector construction:            24.566

     GAPW Soft Basis Set                                            cc-pVDZ_soft

       Number of orbital shell sets:                                           3
       Number of orbital shells:                                               6
       Number of primitive Cartesian functions:                                7
       Number of Cartesian basis functions:                                   15
       Number of spherical basis functions:                                   14
       Norm type:                                                              2

       Normalised Cartesian orbitals:

                        Set   Shell   Orbital            Exponent    Coefficient

                          1       1    1px               2.002000       0.711071
                                                         0.545600       0.339917
                                                         0.151700       0.063270
                          1       1    1py               2.002000       0.711071
                                                         0.545600       0.339917
                                                         0.151700       0.063270
                          1       1    1pz               2.002000       0.711071
                                                         0.545600       0.339917
                                                         0.151700       0.063270

                          1       2    2px               2.002000       0.000000
                                                         0.545600       0.000000
                                                         0.151700       0.134950
                          1       2    2py               2.002000       0.000000
                                                         0.545600       0.000000
                                                         0.151700       0.134950
                          1       2    2pz               2.002000       0.000000
                                                         0.545600       0.000000
                                                         0.151700       0.134950

                          2       1    1s                2.797000       0.439427
                                                         0.521500       0.006650
                                                         0.159600      -0.000574

                          2       2    2s                2.797000      -0.196168
                                                         0.521500       0.238162
                                                         0.159600       0.104468

                          2       3    3s                2.797000       0.000000
                                                         0.521500       0.000000
                                                         0.159600       0.179964

                          3       1    1dx2              0.550000       0.578155
                          3       1    1dxy              0.550000       1.001394
                          3       1    1dxz              0.550000       1.001394
                          3       1    1dy2              0.550000       0.578155
                          3       1    1dyz              0.550000       1.001394
                          3       1    1dz2              0.550000       0.578155

     AE Potential information for                                            ALL

       Description:                                       All-electron potential
                                          Krack, Parrinello, PCCP 2, 2105 (2000)

       Gaussian exponent of the core charge distribution:               4.109048
       Electronic configuration (s p d ...):                           4   2   0


 MOLECULE KIND INFORMATION


 All atoms are their own molecule, skipping detailed information


 TOTAL NUMBERS AND MAXIMUM NUMBERS

  Total number of            - Atomic kinds:                                   4
                             - Atoms:                                         20
                             - Shell sets:                                    50
                             - Shells:                                        90
                             - Primitive Cartesian functions:                190
                             - Cartesian basis functions:                    200
                             - Spherical basis functions:                    190

  Maximum angular momentum of the orbital basis functions:                     2


 MODULE QUICKSTEP: ATOMIC COORDINATES IN ANGSTROM

   Atom Kind Element         X             Y             Z       Z(eff)     Mass
      1    1 N     7     13.836460     14.888903     16.122721   7.0000  14.0067
      2    1 N     7     15.056522     14.762033     15.542445   7.0000  14.0067
      3    1 N     7     15.317506     14.568170     17.699904   7.0000  14.0067
      4    1 N     7     14.007268     14.765757     17.405627   7.0000  14.0067
      5    2 O     8     12.781911     14.971127     13.533124   8.0000  15.9994
      6    3 H     1     12.605636     14.999688     14.495090   1.0000   1.0079
      7    4 C     6     15.949073     14.571956     16.536105   6.0000  12.0107
      8    4 C     6     15.228636     14.901641     14.067330   6.0000  12.0107
      9    4 C     6     16.481249     14.126612     13.646387   6.0000  12.0107
     10    3 H     1     16.585157     14.178858     12.555810   1.0000   1.0079
     11    3 H     1     16.418766     13.068882     13.934345   1.0000   1.0079
     12    4 C     6     13.992071     14.262002     13.378918   6.0000  12.0107
     13    3 H     1     14.200796     14.232335     12.300096   1.0000   1.0079
     14    3 H     1     13.904774     13.216802     13.731139   1.0000   1.0079
     15    3 H     1     17.013212     14.435775     16.395237   1.0000   1.0079
     16    4 C     6     15.349959     16.393190     13.731309   6.0000  12.0107
     17    3 H     1     16.208896     16.839361     14.249071   1.0000   1.0079
     18    3 H     1     14.440112     16.931118     14.018370   1.0000   1.0079
     19    3 H     1     15.491653     16.519119     12.650304   1.0000   1.0079
     20    3 H     1     17.394364     14.555724     14.078544   1.0000   1.0079



 SCF PARAMETERS         Density guess:                                    ATOMIC
                        --------------------------------------------------------
                        max_scf:                                             500
                        max_scf_history:                                       0
                        max_diis:                                              4
                        --------------------------------------------------------
                        eps_scf:                                        1.00E-06
                        eps_scf_history:                                0.00E+00
                        eps_diis:                                       1.00E-01
                        eps_eigval:                                     1.00E-05
                        --------------------------------------------------------
                        level_shift [a.u.]:                             0.000000
                        added MOs                                       152    0
                        --------------------------------------------------------
                        Mixing method:                            BROYDEN_MIXING
                                                charge density mixing in g-space
                        --------------------------------------------------------
                        No outer SCF

 PW_GRID| Information for grid number                                          1
 PW_GRID| Grid distributed over                                   216 processors
 PW_GRID| Real space group dimensions                                   216    1
 PW_GRID| the grid is blocked:                                                NO
 PW_GRID| Cutoff [a.u.]                                                    250.0
 PW_GRID| spherical cutoff:                                                   NO
 PW_GRID|   Bounds   1           -202     202                Points:         405
 PW_GRID|   Bounds   2           -202     202                Points:         405
 PW_GRID|   Bounds   3           -202     202                Points:         405
 PW_GRID| Volume element (a.u.^3)  0.2743E-02     Volume (a.u.^3)    182205.0337
 PW_GRID| Grid span                                                    FULLSPACE
 PW_GRID|   Distribution                         Average         Max         Min
 PW_GRID|   G-Vectors                           307546.9      307800      307395
 PW_GRID|   G-Rays                                 759.4         760         759
 PW_GRID|   Real Space Points                   307546.9      328050      164025

 PW_GRID| Information for grid number                                          2
 PW_GRID| Number of the reference grid                                         1
 PW_GRID| Grid distributed over                                   216 processors
 PW_GRID| Real space group dimensions                                   216    1
 PW_GRID| the grid is blocked:                                                NO
 PW_GRID| Cutoff [a.u.]                                                     83.3
 PW_GRID| spherical cutoff:                                                   NO
 PW_GRID|   Bounds   1           -120     119                Points:         240
 PW_GRID|   Bounds   2           -120     119                Points:         240
 PW_GRID|   Bounds   3           -120     119                Points:         240
 PW_GRID| Volume element (a.u.^3)  0.1318E-01     Volume (a.u.^3)    182205.0337
 PW_GRID| Grid span                                                    FULLSPACE
 PW_GRID|   Distribution                         Average         Max         Min
 PW_GRID|   G-Vectors                            64000.0       64560       63360
 PW_GRID|   G-Rays                                 266.7         269         264
 PW_GRID|   Real Space Points                    64000.0      115200       57600

 PW_GRID| Information for grid number                                          3
 PW_GRID| Number of the reference grid                                         1
 PW_GRID| Grid distributed over                                   216 processors
 PW_GRID| Real space group dimensions                                    12   18
 PW_GRID| the grid is blocked:                                                NO
 PW_GRID| Cutoff [a.u.]                                                     27.8
 PW_GRID| spherical cutoff:                                                   NO
 PW_GRID|   Bounds   1            -67      67                Points:         135
 PW_GRID|   Bounds   2            -67      67                Points:         135
 PW_GRID|   Bounds   3            -67      67                Points:         135
 PW_GRID| Volume element (a.u.^3)  0.7406E-01     Volume (a.u.^3)    182205.0337
 PW_GRID| Grid span                                                    FULLSPACE
 PW_GRID|   Distribution                         Average         Max         Min
 PW_GRID|   G-Vectors                            11390.6       11610       11205
 PW_GRID|   G-Rays                                  84.4          86          83
 PW_GRID|   Real Space Points                    11390.6       12960       10395

 PW_GRID| Information for grid number                                          4
 PW_GRID| Number of the reference grid                                         1
 PW_GRID| Grid distributed over                                   216 processors
 PW_GRID| Real space group dimensions                                    12   18
 PW_GRID| the grid is blocked:                                                NO
 PW_GRID| Cutoff [a.u.]                                                      9.3
 PW_GRID| spherical cutoff:                                                   NO
 PW_GRID|   Bounds   1            -40      39                Points:          80
 PW_GRID|   Bounds   2            -40      39                Points:          80
 PW_GRID|   Bounds   3            -40      39                Points:          80
 PW_GRID| Volume element (a.u.^3)  0.3559         Volume (a.u.^3)    182205.0337
 PW_GRID| Grid span                                                    FULLSPACE
 PW_GRID|   Distribution                         Average         Max         Min
 PW_GRID|   G-Vectors                             2370.4        2480        2240
 PW_GRID|   G-Rays                                  29.6          31          28
 PW_GRID|   Real Space Points                     2370.4        2800        1920

 POISSON| Solver                                                         WAVELET
 POISSON| Wavelet| Scaling function                                           40
 POISSON| Periodicity                                                       NONE

 RS_GRID| Information for grid number                                          1
 RS_GRID|   Bounds   1           -202     202                Points:         405
 RS_GRID|   Bounds   2           -202     202                Points:         405
 RS_GRID|   Bounds   3           -202     202                Points:         405
 RS_GRID| Real space distribution over                                  6 groups
 RS_GRID| Real space distribution along direction                              1
 RS_GRID| Border size                                                         34
 RS_GRID| Real space distribution over                                  6 groups
 RS_GRID| Real space distribution along direction                              2
 RS_GRID| Border size                                                         34
 RS_GRID| Real space distribution over                                  6 groups
 RS_GRID| Real space distribution along direction                              3
 RS_GRID| Border size                                                         34
 RS_GRID|   Distribution                         Average         Max         Min
 RS_GRID|   Planes                                 135.5         136         135
 RS_GRID|   Distribution                         Average         Max         Min
 RS_GRID|   Planes                                 135.5         136         135
 RS_GRID|   Distribution                         Average         Max         Min
 RS_GRID|   Planes                                 135.5         136         135

 RS_GRID| Information for grid number                                          2
 RS_GRID|   Bounds   1           -120     119                Points:         240
 RS_GRID|   Bounds   2           -120     119                Points:         240
 RS_GRID|   Bounds   3           -120     119                Points:         240
 RS_GRID| Real space distribution over                                  6 groups
 RS_GRID| Real space distribution along direction                              1
 RS_GRID| Border size                                                         34
 RS_GRID| Real space distribution over                                  6 groups
 RS_GRID| Real space distribution along direction                              2
 RS_GRID| Border size                                                         34
 RS_GRID| Real space distribution over                                  6 groups
 RS_GRID| Real space distribution along direction                              3
 RS_GRID| Border size                                                         34
[...]
 fft3d_ps                          4979 13.1   23.162   24.953   64.807   66.049
 ps_wavelet_solve                   245 10.5   25.367   36.566   60.872   61.110
 qs_ks_update_qs_env                 65  5.0    0.000    0.001   54.531   54.535
 rebuild_ks_matrix                   65  6.0    0.000    0.000   54.525   54.529
 qs_ks_build_kohn_sham_matrix        65  7.0    0.010    0.011   54.525   54.529
 mp_alltoall_z22v                  4979 15.1   35.963   45.059   35.963   45.059
 qs_rho_update_rho_low              247  7.9    0.003    0.003   40.167   40.176
 calculate_rho_elec                 247  8.9    0.539    0.578   39.688   39.697
 mp_alltoall_d54                    245 11.5   13.502   33.729   13.502   33.729
 xc_pw_derive                      1473 11.0    0.014    0.019   31.147   32.544
 density_rs2pw                      247  9.9    0.014    0.017   25.666   27.924
 tddfpt_apply_xc_analytic           180  9.0    0.124    0.155   27.760   27.910
 integrate_v_rspace                 245  9.0    0.006    0.007   26.337   26.699
 mp_alltoall_d45                    246 11.5   21.862   24.407   21.862   24.407
 yz_to_x                           1966 14.5    1.790    2.225   18.607   24.017
 x_to_yz                           2029 13.8    2.365    2.655   21.343   22.950
 potential_pw2rs                    245 10.0    0.051    0.070   22.001   22.366
 xc_pw_divergence                   245 10.7    0.008    0.010   21.047   22.213
 transfer_rs2pw                    1235 10.9    0.030    0.066   18.693   20.870
 transfer_pw2rs                    1226 10.9    0.016    0.020   20.493   20.683
 integrate_four_center              425  9.8    9.256   13.313   19.346   19.461
 tddfpt_apply_hfx                     9  8.0    0.004    0.004   17.743   17.743
 xc_calc_2nd_deriv_analytical       900 10.2    0.869    1.013   16.292   16.382
 mp_waitany                       62034 12.8   13.136   15.478   13.136   15.478
 grid_collocate_task_list           247  9.9   13.002   15.166   13.002   15.166
 tddft_hfx_matrix                   360  9.0    0.010    0.010   13.669   13.751
 mp_alltoall_d11v                 15820 11.6   10.161   13.702   10.161   13.702
 transfer_rs2pw_250                 494 11.8    3.626    4.043    9.492   11.969
 prepare_gapw_den                   246  8.7    0.004    0.005   11.743   11.949
 transfer_pw2rs_250                 491 11.7    3.633    4.046   11.381   11.702
 qs_vxc_create                       65  8.0    0.001    0.001   11.640   11.645
 xc_vxc_pw_create                    65  9.0    0.181    0.207   11.640   11.645
 mp_sync                           2248 11.5    4.282   10.880    4.282   10.880
 put_rho0_on_grid                   246  9.7    0.585    0.790   10.629   10.835
 integrate_vhg0_rspace              245  9.5    0.141    0.273   10.559   10.643
 cp_dbcsr_sm_fm_multiply           1126  8.6    0.023    0.027    8.026    8.110
 sum_up_and_integrate                65  8.0    0.001    0.001    6.731    6.753
 xc_rho_set_and_dset_create          66 10.0    0.155    0.202    5.375    5.770
 hfx_ks_matrix                       65  8.0    0.002    0.003    5.693    5.730
 mp_waitall_1                    505374 13.2    4.422    5.722    4.422    5.722
 dbcsr_complete_redistribute       3732 10.5    0.153    0.200    5.545    5.643
 transfer_rs2pw_30                  247 11.9    2.335    2.456    5.328    5.422
 transfer_pw2rs_30                  245 12.0    2.246    2.436    5.054    5.309
 mp_sum_d                          5016  7.7    2.726    5.149    2.726    5.149
 gspace_mixing                       64  5.0    0.139    0.150    4.942    4.942
 rs_gather_matrices                 245 10.0    0.004    0.009    4.124    4.384
 grid_integrate_task_list           245 10.0    0.205    4.251    0.205    4.251
 mp_sendrecv_dv                  106210 12.9    3.978    4.129    3.978    4.129
 mp_sum_dm                        14878 10.1    3.778    4.017    3.778    4.017
 calculate_xc_2nd_deriv_atom        180  9.0    0.067    1.235    0.161    3.966
 pw_scatter_p                      2519 12.8    3.226    3.791    3.226    3.791
 copy_fm_to_dbcsr                  2517  9.6    0.012    0.012    3.661    3.766
 copy_dbcsr_to_fm                  1213  9.3    0.016    0.017    3.699    3.758
 broyden_mixing                      64  6.0    3.454    3.562    3.561    3.612
 pw_gather_p                       2460 13.4    2.717    3.399    2.717    3.399
 dbcsr_multiply_generic            1551 10.3    0.070    0.078    3.170    3.248
 gaVxcgb_GC                         490  9.7    0.080    3.247    0.080    3.247
 cp2k_distribution_to_z_slices      245 10.5    1.145    1.250    2.483    3.028
 fft_wrap_pw1pw2_90                 492 12.0    0.074    0.125    2.475    2.915
 transfer_rs2pw_90                  247 11.9    0.560    0.673    2.258    2.847
 mp_alltoall_i11v                 12410 11.5    2.753    2.757    2.753    2.757
 mp_isendrecv_dv                 288100 12.3    1.584    2.703    1.584    2.703
 rs_grid_zero                      1228 11.9    2.552    2.682    2.552    2.682
 transfer_pw2rs_90                  245 12.0    0.556    0.626    2.424    2.672
 qs_scf_new_mos                      65  5.0    0.001    0.001    2.655    2.662
 pw_derive                         2208 11.8    2.414    2.619    2.414    2.619
 cp_fm_syevd                        116  7.2    0.001    0.001    2.580    2.586
 cp_fm_redistribute_end             116  8.2    1.280    2.422    1.287    2.428
 create_qs_kind_set                   1  2.0    0.000    0.000    2.318    2.319
 read_qs_kind                         4  3.0    1.266    1.322    2.318    2.319
 cp_fm_syevd_base                   116  8.2    1.137    2.278    1.137    2.278
 cp_dbcsr_sm_fm_multiply_core      1126  9.6    0.003    0.003    2.187    2.253
 multiply_cannon                   1551 11.3    0.192    0.198    1.864    1.931
 eigensolver_symm                    65  6.0    0.002    0.002    1.919    1.926
 powell_optimize                 742171 11.0    1.820    1.923    1.820    1.923
 pw_copy                           3320 11.0    1.662    1.795    1.662    1.795
 tddfpt_orthonormalize_psi1_psi      10  6.9    0.024    0.026    1.774    1.774
 dbcsr_desymmetrize_deep           1214 10.3    0.034    0.038    1.718    1.771
 cp_dbcsr_plus_fm_fm_t              245  8.5    0.004    0.004    1.743    1.763
 integrate_four_center_main         425 10.8    0.048    0.089    1.427    1.742
 pw_copy_to_array                  2460 13.4    1.172    1.692    1.172    1.692
 integrate_four_center_bin        32285 11.8    1.379    1.680    1.379    1.680
 mp_isend_dv                     163845 13.8    1.014    1.669    1.014    1.669
 transfer_pw2rs_10                  245 12.0    0.588    0.718    1.618    1.668
 transfer_rs2pw_10                  247 11.9    0.600    0.639    1.584    1.615
 calc_screening_functions             1 10.0    0.541    0.569    1.458    1.529
 xc_functional_eval                1046 10.9    0.001    0.003    0.936    1.514
 pbe_lda_eval                      1046 11.9    0.935    1.510    0.935    1.510
 multiply_cannon_loop              1551 12.3    0.360    0.376    1.424    1.498
 pw_poisson_set                     246 10.5    0.006    0.007    1.454    1.472
 tddfpt_apply_energy_diff             9  8.0    0.001    0.001    1.412    1.412
 calc_pair_dist_radii                 1 10.0    0.412    0.428    1.316    1.409
 mp_isend_dm3                      8862 12.8    0.531    1.200    0.531    1.200
 calculate_vxc_atom                  65  8.0    0.044    0.254    1.196    1.197
 parallel_gemm_fm                  1651  8.3    0.002    0.002    1.162    1.186
 parallel_gemm_fm_gemm             1651  9.3    0.002    0.002    1.160    1.183
 cp_fm_gemm                        1651 10.3    1.158    1.181    1.158    1.181
 mp_irecv_dm3                      8862 12.8    0.568    1.164    0.568    1.164
 tddfpt_compute_residual_vects        8  7.0    0.001    0.001    1.156    1.156
 tddfpt_print_nto_analysis            1  6.0    0.002    0.003    1.149    1.149
 pw_integral_ab_c1d_c1d_gs          245 10.5    0.796    0.803    1.028    1.122
 parser_read_line                269988  4.0    0.091    0.098    1.052    1.077
 mp_alltoall_z11v                   984 15.0    1.004    1.042    1.004    1.042
 fft_wrap_pw1pw2_30                 492 12.0    0.014    0.016    0.991    1.031
 pw_axpy                           2638 10.8    0.901    1.019    0.901    1.019
 Vh_1c_gg_integrals                 245  9.5    0.024    0.183    0.428    1.007
 calculate_rho_atom                 984  9.7    0.615    1.001    0.615    1.002
 parser_read_line_low               296  5.0    0.082    0.395    0.961    0.987
 make_m2s                          3102 11.3    0.062    0.071    0.897    0.953
 broadcast_input_information        296  6.0    0.203    0.229    0.879    0.939
 pw_copy_from_array                2519 12.8    0.752    0.934    0.752    0.934
 mp_sum_dv                        22183  8.9    0.841    0.896    0.841    0.896
 pw_zero                           2736 10.6    0.784    0.891    0.784    0.891
 hybrid_alltoall_any               4316 13.5    0.041    0.051    0.847    0.883
 mp_max_i                           716  5.0    0.307    0.857    0.307    0.857
 integrate_four_center_getP         425 10.8    0.147    0.159    0.783    0.792
 make_images                       3102 12.3    0.175    0.179    0.736    0.771
 integrate_four_center_dist_KS      425 10.8    0.147    0.159    0.764    0.768
 mp_alltoall_i22                   4946 11.4    0.606    0.733    0.606    0.733
 yz_to_xz                           490 14.0    0.044    0.049    0.667    0.701
 offload_free_buffer                253 10.2    0.573    0.658    0.573    0.658
 qs_energies_init_hamiltonians        1  3.0    0.000    0.000    0.633    0.633
 pw_poisson_rebuild                 245 10.5    0.000    0.000    0.604    0.627
 ps_wavelet_create                    1 10.0    0.000    0.000    0.604    0.627
 RS_z_slice_distribution              1 11.0    0.498    0.588    0.604    0.627
 build_core_hamiltonian_matrix        1  4.0    0.000    0.000    0.621    0.621
 overlap_condnum                      1  5.0    0.000    0.000    0.618    0.619
 cp_fm_geeig                         20  7.0    0.001    0.001    0.604    0.605
 fft_wrap_pw1pw2_10                 492 12.0    0.005    0.005    0.527    0.536
 calculate_dm_sparse                 65  6.0    0.000    0.001    0.504    0.513
 arnoldi_conjugate_gradient           5  6.0    0.012    0.014    0.506    0.506
 mp_bcast_am_src                    296  7.0    0.324    0.426    0.361    0.499
 calculate_rho_atom_coeff           247  8.9    0.046    0.086    0.476    0.476
 mp_bcast_i_src                    1184  7.0    0.302    0.474    0.302    0.474
 mp_rank_compare                   4979 14.1    0.407    0.432    0.407    0.432
 xz_to_yz                           494 13.9    0.029    0.034    0.411    0.416
 cp_fm_trace_a1b1t1_aa            16500  8.0    0.078    0.083    0.412    0.416
 multiply_cannon_metrocomm3       55836 13.3    0.091    0.096    0.246    0.374
 mp_sum_l                          5935 10.6    0.317    0.350    0.317    0.350
 multiply_cannon_metrocomm4       52734 13.3    0.156    0.167    0.302    0.337
 make_images_sizes                 3102 13.3    0.004    0.004    0.300    0.315
 xc_2nd_deriv_of_r                  720 10.0    0.003    0.054    0.015    0.313
 mp_alltoall_i44                   3102 14.3    0.296    0.311    0.296    0.311
 dbcsr_sym_matrix_vector_mult      1706  7.0    0.027    0.031    0.283    0.307
 prepare_dr1dr                      900 11.2    0.269    0.300    0.269    0.300
 dbcsr_finalize                   10127 11.4    0.043    0.073    0.195    0.300
 init_scf_run                         1  3.0    0.000    0.000    0.295    0.296
 multiply_cannon_metrocomm2       51183 13.3    0.152    0.161    0.271    0.294
 update_ks_atom                     245  8.7    0.036    0.055    0.244    0.275
 scale_and_distribute               490 11.5    0.247    0.270    0.247    0.270
 scf_env_initial_rho_setup            1  4.0    0.000    0.000    0.263    0.263
 mp_cart_sub                       2430 11.3    0.258    0.260    0.258    0.260
 tddfpt_construct_ground_state_       1  6.0    0.000    0.000    0.240    0.243
 mp_bcast_dm                       9800  9.7    0.208    0.236    0.208    0.236
 multiply_cannon_metrocomm1       55836 13.3    0.064    0.067    0.157    0.230
 multiply_cannon_multrec          55836 13.3    0.082    0.197    0.089    0.204
 rs_scatter_matrices                247  9.9    0.003    0.005    0.195    0.204
 integrate_four_center_load         425 10.8    0.001    0.002    0.164    0.198
 hfx_load_balance                     1 11.0    0.000    0.000    0.163    0.197
 mp_cart_create                    2198 10.6    0.177    0.194    0.179    0.196
 qs_init_subsys                       1  2.0    0.003    0.004    0.191    0.192
 dbcsr_create_new                 38876 11.6    0.137    0.146    0.178    0.188
 qs_env_setup                         1  3.0    0.000    0.000    0.182    0.183
 mp_allgather_i34                  1551 12.3    0.145    0.183    0.145    0.183
 qs_env_rebuild_pw_env                2  3.5    0.000    0.000    0.181    0.183
 pw_env_rebuild                       1  5.0    0.001    0.001    0.181    0.182
 hfx_load_balance_range               1 12.0    0.000    0.000    0.138    0.172
 make_images_data                  3102 13.3    0.040    0.052    0.103    0.171
 dbcsr_merge_all                   8218 12.4    0.084    0.123    0.110    0.169
 mp_irecv_dv                     164844 13.8    0.118    0.165    0.118    0.165
 cp_fm_redistribute_start           116  8.2    0.123    0.126    0.155    0.164
 dbcsr_add_d                       2609  7.0    0.002    0.003    0.026    0.161
 pw_grid_setup                        4  6.0    0.000    0.000    0.158    0.159
 pw_grid_setup_internal               4  7.0    0.003    0.004    0.158    0.159
 dbcsr_add_anytype                 2609  8.0    0.003    0.020    0.023    0.158
 tddfpt_compute_ritz_vects            9  7.0    0.007    0.007    0.148    0.149
 create_kernel_env                    1  6.0    0.000    0.000    0.114    0.123
 xc_prep_2nd_deriv                    1  7.0    0.000    0.000    0.114    0.123
 dbcsr_col_vec_to_rep_row          1706  8.0    0.012    0.014    0.099    0.123
 dbcsr_special_finalize            7755 13.3    0.030    0.031    0.089    0.111
 rs_grid_create                     251 10.4    0.001    0.002    0.012    0.111
 offload_create_buffer              253 11.3    0.011    0.109    0.011    0.109
 pw_scale                           620  9.5    0.095    0.109    0.095    0.109
 dbcsr_rep_row_to_rep_col_vec      1706  8.0    0.009    0.010    0.050    0.109
 cube_transpose_2                   494 13.9    0.009    0.011    0.098    0.106
 calculate_rho0_atom                984  9.7    0.096    0.098    0.096    0.098
 dbcsr_iterator_start             47090 10.8    0.058    0.075    0.071    0.098
 cube_transpose_1                   490 14.0    0.008    0.009    0.088    0.095
 mp_bcast_iv_src                    296  7.0    0.013    0.094    0.013    0.094
 mp_isend_iv                     113074 14.3    0.084    0.094    0.084    0.094
 tddfpt_orthogonalize_psi1_psi0      10  6.9    0.000    0.001    0.080    0.093
 copy_fm_to_dbcsr_bc               2517 10.6    0.027    0.029    0.080    0.087
 mp_bcast_iv                        321  7.5    0.038    0.082    0.038    0.082
 mp_bcast_dv                       1822  9.0    0.051    0.082    0.051    0.082
 dbcsr_copy                       10704  8.8    0.035    0.040    0.072    0.080
 vxc_of_r_new                       260  9.0    0.001    0.011    0.003    0.075
 pw_grid_sort                         4  8.0    0.043    0.045    0.067    0.073
 dbcsr_make_images_dense            850 11.7    0.015    0.018    0.043    0.072
 dbcsr_merge_single_wm             7755 14.3    0.039    0.046    0.049    0.071
 dbcsr_destroy                    35403 11.0    0.046    0.048    0.066    0.070
 dbcsr_work_create                17187 12.5    0.035    0.045    0.053    0.069
 cp_fm_symm                          65  7.0    0.056    0.063    0.056    0.063
 dbcsr_iterator_stop              47090 10.8    0.042    0.052    0.051    0.063
 dbcsr_data_release              188742 12.5    0.052    0.062    0.052    0.062
 dbcsr_data_new                  120265 12.6    0.055    0.062    0.055    0.062
 mp_cart_rank                    212148 11.0    0.056    0.061    0.056    0.061
 scf_post_calculation_gpw             1  3.0    0.000    0.000    0.057    0.058
 dbcsr_work_destroy_all           17187 13.4    0.032    0.041    0.043    0.058
 write_available_results              1  4.0    0.000    0.000    0.057    0.057
 write_mo_free_results                1  5.0    0.003    0.004    0.057    0.057
 cp_fm_cholesky_decompose            20  8.0    0.052    0.052    0.052    0.052
 mp_irecv_iv                     113074 14.3    0.046    0.052    0.046    0.052
 tddfpt_is_nonorthogonal_psi1_p       8  7.0    0.000    0.001    0.048    0.048
 cp_fm_write_unformatted             24  7.0    0.027    0.040    0.028    0.048
 setup_buffer_matrices             3102 12.3    0.012    0.013    0.039    0.045
 cp_fm_triangular_multiply           60  8.0    0.043    0.045    0.043    0.045
 mixing_init                          1  5.0    0.041    0.043    0.044    0.045
 dbcsr_make_dense_low              2125 12.7    0.010    0.011    0.017    0.044
 cp_fm_triangular_invert             20  8.0    0.039    0.040    0.039    0.040
 cp_fm_power                          1  6.0    0.000    0.000    0.039    0.039
 mp_maxloc_dv                      1251  1.0    0.036    0.039    0.036    0.039
 mp_sum_im                          121  9.0    0.033    0.039    0.033    0.039
 mp_max_d                           227  8.4    0.030    0.039    0.030    0.039
 write_mo_set_to_restart             65  5.0    0.001    0.008    0.011    0.032
 pw_grid_distribute                   4  8.0    0.010    0.010    0.019    0.032
 pw_pool_create_pw                 8552 10.8    0.019    0.022    0.026    0.031
 tddfpt_dipole_operator               1  5.0    0.000    0.001    0.030    0.030
 write_mo_set_low                     4  6.0    0.000    0.000    0.009    0.030
 sort_shells                          4  9.0    0.024    0.029    0.024    0.029
 self_consistency_check              65  5.0    0.000    0.000    0.023    0.029
 cp_sm_mix                           65  6.0    0.000    0.001    0.023    0.029
 dbcsr_make_untransposed_blocks    2516 11.4    0.015    0.018    0.024    0.027
 dbcsr_mm_multrec_init             1551 12.3    0.003    0.004    0.024    0.027
 create_fast_row_vec_access        3412  8.0    0.014    0.018    0.022    0.027
 make_dense_data                   2125 13.7    0.001    0.011    0.002    0.027
 mp_sum_iv                          688  7.5    0.021    0.026    0.021    0.026
 -------------------------------------------------------------------------------

 The number of warnings for this run is : 1
 
 -------------------------------------------------------------------------------
  **** **** ******  **  PROGRAM ENDED AT                 2025-04-02 18:00:54.619
 ***** ** ***  *** **   PROGRAM RAN ON                              i03r02c02s02
 **    ****   ******    PROGRAM RAN BY                                   di38fab
 ***** **    ** ** **   PROGRAM PROCESS ID                               1671812
  **** **  *******  **  PROGRAM STOPPED IN /hppfs/scratch/04/di38fab/07_MOL_non_
                                           aug/05_MOL_non_aug/05_MOL/aUKBqsEOTmq
                                           69kFe5R_nOg/5k_set_final_qzvp/IQUJEK/
                                           cc-pVDZ/TDDFT
