 DBCSR| CPU Multiplication driver                                           XSMM (U)
 DBCSR| Multrec recursion limit                                              512 (U)
 DBCSR| Multiplication stack size                                           1000 (D)
 DBCSR| Maximum elements for images                                    UNLIMITED (U)
 DBCSR| Multiplicative factor virtual images                                   1 (U)
 DBCSR| Use multiplication densification                                       T (D)
 DBCSR| Multiplication size stacks                                             3 (U)
 DBCSR| Use memory pool for CPU allocation                                     F (U)
 DBCSR| Number of 3D layers                                               SINGLE (U)
 DBCSR| Use MPI memory allocation                                              F (U)
 DBCSR| Use RMA algorithm                                                      F (U)
 DBCSR| Use Communication thread                                               T (U)
 DBCSR| Communication thread load                                             75 (D)
 DBCSR| MPI: My process id                                                     0
 DBCSR| MPI: Number of processes                                              16
 DBCSR| OMP: Current number of threads                                         4
 DBCSR| OMP: Max number of threads                                             4
 DBCSR| Split modifier for TAS multiplication algorithm                  1.0E+00 (U)


  **** **** ******  **  PROGRAM STARTED AT               2025-07-01 21:04:56.901
 ***** ** ***  *** **   PROGRAM STARTED ON                 n2cn0394.ab2021.local
 **    ****   ******    PROGRAM STARTED BY                              metdyn02
 ***** **    ** ** **   PROGRAM PROCESS ID                               1721523
  **** **  *******  **  PROGRAM STARTED IN /scratch/hpc-prf-metdyn/metdyn02_Remi
                                           /10_MOL/05_MOL/W4-11+ALK/c-hono/mini-
                                           SZV/TDDFT/1e-4

 CP2K| version string:                 CP2K version 2025.1 (Development Version)
 CP2K| source code revision number:                                  git:400017f
 CP2K| cp2kflags: omp libint fftw3 libxc libgrpp elpa parallel scalapack mpi_f08
 CP2K|             cosma xsmm plumed2 spglib libvori libbqb libvdwxc hdf5
 CP2K| is freely available from                            https://www.cp2k.org/
 CP2K| Program compiled at                         Thu Jun 26 12:02:16 CEST 2025
 CP2K| Program compiled on                                              n2login1
 CP2K| Program compiled for                                                local
 CP2K| Data directory path    /opt/software/pc2/EB-SW/software/CP2K/2024.1-foss-
 CP2K| Input file name                                                    GW.inp

 GLOBAL| Force Environment number                                              1
 GLOBAL| Basis set file name            /scratch/hpc-prf-metdyn/metdyn02_Remi/BA
 GLOBAL| Potential file name            /pc2/groups/hpc-prf-metdyn/metdyn02_Remi
 GLOBAL| MM Potential file name                                     MM_POTENTIAL
 GLOBAL| Coordinate file name                                      __STD_INPUT__
 GLOBAL| Method name                                                        CP2K
 GLOBAL| Project name                                                       MoS2
 GLOBAL| Run type                                                         ENERGY
 GLOBAL| FFT library                                                       FFTW3
 GLOBAL| Diagonalization library                                            ELPA
 GLOBAL| Cholesky decomposition library                                ScaLAPACK
 GLOBAL| DGEMM library                                                      BLAS
 GLOBAL| Minimum number of eigenvectors for ELPA usage                        16
 GLOBAL| Orthonormality check for eigenvectors                          DISABLED
 GLOBAL| Matrix multiplication library                                     COSMA
 GLOBAL| All-to-all communication in single precision                          F
 GLOBAL| FFTs using library dependent lengths                                  F
 GLOBAL| Grid backend                                                       AUTO
 GLOBAL| Global print level                                               MEDIUM
 GLOBAL| MPI I/O enabled                                                       T
 GLOBAL| Total number of message passing processes                            16
 GLOBAL| Number of threads for this process                                    4
 GLOBAL| This output is from process                                           0
 GLOBAL| OpenMP stack size per thread (OMP_STACKSIZE)                    default
 GLOBAL| CPU model name                          AMD EPYC 7763 64-Core Processor
 GLOBAL| CPUID                                                              1002

 MEMORY| system memory details [Kb]
 MEMORY|                        rank 0           min           max       average
 MEMORY| MemTotal            263897604     263897596     263897604     263897600
 MEMORY| MemFree             247660696     247660696     249677504     248669100
 MEMORY| Buffers                 54736         54736        126468         90602
 MEMORY| Cached                9832336       7830096       9832336       8831216
 MEMORY| Slab                  1741428       1717280       1741428       1729354
 MEMORY| SReclaimable           441584        407880        441584        424732
 MEMORY| MemLikelyFree       257989352     257989352     258041948     258015650


 *** Fundamental physical constants (SI units) ***

 *** Literature: B. J. Mohr and B. N. Taylor,
 ***             CODATA recommended values of the fundamental physical
 ***             constants: 2006, Web Version 5.1
 ***             http://physics.nist.gov/constants

 Speed of light in vacuum [m/s]                             2.99792458000000E+08
 Magnetic constant or permeability of vacuum [N/A**2]       1.25663706143592E-06
 Electric constant or permittivity of vacuum [F/m]          8.85418781762039E-12
 Planck constant (h) [J*s]                                  6.62606896000000E-34
 Planck constant (h-bar) [J*s]                              1.05457162825177E-34
 Elementary charge [C]                                      1.60217648700000E-19
 Electron mass [kg]                                         9.10938215000000E-31
 Electron g factor [ ]                                     -2.00231930436220E+00
 Proton mass [kg]                                           1.67262163700000E-27
 Fine-structure constant                                    7.29735253760000E-03
 Rydberg constant [1/m]                                     1.09737315685270E+07
 Avogadro constant [1/mol]                                  6.02214179000000E+23
 Boltzmann constant [J/K]                                   1.38065040000000E-23
 Atomic mass unit [kg]                                      1.66053878200000E-27
 Bohr radius [m]                                            5.29177208590000E-11

 *** Conversion factors ***

 [u] -> [a.u.]                                              1.82288848426455E+03
 [Angstrom] -> [Bohr] = [a.u.]                              1.88972613288564E+00
 [a.u.] = [Bohr] -> [Angstrom]                              5.29177208590000E-01
 [a.u.] -> [s]                                              2.41888432650478E-17
 [a.u.] -> [fs]                                             2.41888432650478E-02
 [a.u.] -> [J]                                              4.35974393937059E-18
 [a.u.] -> [N]                                              8.23872205491840E-08
 [a.u.] -> [K]                                              3.15774647902944E+05
 [a.u.] -> [kJ/mol]                                         2.62549961709828E+03
 [a.u.] -> [kcal/mol]                                       6.27509468713739E+02
 [a.u.] -> [Pa]                                             2.94210107994716E+13
 [a.u.] -> [bar]                                            2.94210107994716E+08
 [a.u.] -> [atm]                                            2.90362800883016E+08
 [a.u.] -> [eV]                                             2.72113838565563E+01
 [a.u.] -> [Hz]                                             6.57968392072181E+15
 [a.u.] -> [1/cm] (wave numbers)                            2.19474631370540E+05
 [a.u./Bohr**2] -> [1/cm]                                   5.14048714338585E+03
 

 CELL_TOP| Volume [angstrom^3]:                                     27000.000000
 CELL_TOP| Vector a [angstrom    30.000     0.000     0.000   |a| =    30.000000
 CELL_TOP| Vector b [angstrom     0.000    30.000     0.000   |b| =    30.000000
 CELL_TOP| Vector c [angstrom     0.000     0.000    30.000   |c| =    30.000000
 CELL_TOP| Angle (b,c), alpha [degree]:                                90.000000
 CELL_TOP| Angle (a,c), beta  [degree]:                                90.000000
 CELL_TOP| Angle (a,b), gamma [degree]:                                90.000000
 CELL_TOP| Numerically orthorhombic:                                         YES
 CELL_TOP| Periodicity                                                      NONE

 GENERATE|  Preliminary Number of Bonds generated:                             0
 GENERATE|  Achieved consistency in connectivity generation.

 CELL| Volume [angstrom^3]:                                         27000.000000
 CELL| Vector a [angstrom]:      30.000     0.000     0.000   |a| =    30.000000
 CELL| Vector b [angstrom]:       0.000    30.000     0.000   |b| =    30.000000
 CELL| Vector c [angstrom]:       0.000     0.000    30.000   |c| =    30.000000
 CELL| Angle (b,c), alpha [degree]:                                    90.000000
 CELL| Angle (a,c), beta  [degree]:                                    90.000000
 CELL| Angle (a,b), gamma [degree]:                                    90.000000
 CELL| Numerically orthorhombic:                                             YES
 CELL| Periodicity                                                          NONE

 CELL_REF| Volume [angstrom^3]:                                     27000.000000
 CELL_REF| Vector a [angstrom    30.000     0.000     0.000   |a| =    30.000000
 CELL_REF| Vector b [angstrom     0.000    30.000     0.000   |b| =    30.000000
 CELL_REF| Vector c [angstrom     0.000     0.000    30.000   |c| =    30.000000
 CELL_REF| Angle (b,c), alpha [degree]:                                90.000000
 CELL_REF| Angle (a,c), beta  [degree]:                                90.000000
 CELL_REF| Angle (a,b), gamma [degree]:                                90.000000
 CELL_REF| Numerically orthorhombic:                                         YES
 CELL_REF| Periodicity                                                      NONE

 *******************************************************************************
 *******************************************************************************
 **                                                                           **
 **     #####                         ##              ##                      **
 **    ##   ##            ##          ##              ##                      **
 **   ##     ##                       ##            ######                    **
 **   ##     ##  ##   ##  ##   #####  ##  ##   ####   ##    #####    #####    **
 **   ##     ##  ##   ##  ##  ##      ## ##   ##      ##   ##   ##  ##   ##   **
 **   ##  ## ##  ##   ##  ##  ##      ####     ###    ##   ######   ######    **
 **    ##  ###   ##   ##  ##  ##      ## ##      ##   ##   ##       ##        **
 **     #######   #####   ##   #####  ##  ##  ####    ##    #####   ##        **
 **           ##                                                    ##        **
 **                                                                           **
 **                                                ... make the atoms dance   **
 **                                                                           **
 **            Copyright (C) by CP2K developers group (2000-2025)             **
 **                      J. Chem. Phys. 152, 194103 (2020)                    **
 **                                                                           **
 *******************************************************************************

 DFT| Spin restricted Kohn-Sham (RKS) calculation                            RKS
 DFT| Multiplicity                                                             1
 DFT| Number of spin states                                                    1
 DFT| Charge                                                                   0
 DFT| Self-interaction correction (SIC)                                       NO
 DFT| Cutoffs: density                                              1.000000E-10
 DFT|          gradient                                             1.000000E-10
 DFT|          tau                                                  1.000000E-10
 DFT|          cutoff_smoothing_range                               0.000000E+00
 DFT| XC density smoothing                                                  NONE
 DFT| XC derivatives                                                          PW

 FUNCTIONAL| PBE:
 FUNCTIONAL| J.P.Perdew, K.Burke, M.Ernzerhof, Phys. Rev. Letter, vol. 77, n 18,
 FUNCTIONAL|  pp. 3865-3868, (1996)sx=0.750sc=1.000{spin unpolarized}           


 QS| Method:                                                                GAPW
 QS| Density plane wave grid type                        NON-SPHERICAL FULLSPACE
 QS| Number of grid levels:                                                    4
 QS| Density cutoff [a.u.]:                                                250.0
 QS| Multi grid cutoff [a.u.]: 1) grid level                               250.0
 QS|                           2) grid level                                83.3
 QS|                           3) grid level                                27.8
 QS|                           4) grid level                                 9.3
 QS| Grid level progression factor:                                          3.0
 QS| Relative density cutoff [a.u.]:                                        50.0
 QS| Interaction thresholds: eps_pgf_orb:                                1.0E-12
 QS|                         eps_filter_matrix:                          0.0E+00
 QS|                         eps_core_charge:                            1.0E-14
 QS|                         eps_rho_gspace:                             1.0E-12
 QS|                         eps_rho_rspace:                             1.0E-12
 QS|                         eps_gvg_rspace:                             1.0E-06
 QS|                         eps_ppl:                                    1.0E-02
 QS|                         eps_ppnl:                                   1.0E-08
 QS| GAPW|      One center basis from orbital basis primitives
 QS| GAPW|                   eps_fit:                                    1.0E-04
 QS| GAPW|                   eps_iso:                                    1.0E-12
 QS| GAPW|                   eps_svd:                                    1.0E-08
 QS| GAPW|                   eps_cpc:                                    1.0E-12
 QS| GAPW|   atom-r-grid: quadrature:                                     GC_LOG
 QS| GAPW|      atom-s-grid:  max l :                                          2
 QS| GAPW|      max_l_rho0 :                                                   2


 ATOMIC KIND INFORMATION

  1. Atomic kind: O                                     Number of atoms:       2

     Orbital Basis Set                                    aug-SZV-MOLOPT-ae-mini

       Number of orbital shell sets:                                           2
       Number of orbital shells:                                               5
       Number of primitive Cartesian functions:                                7
       Number of Cartesian basis functions:                                    9
       Number of spherical basis functions:                                    9
       Norm type:                                                              2

       Normalised Cartesian orbitals:

                        Set   Shell   Orbital            Exponent    Coefficient

                          1       1    1s                0.162491       0.000000
                                                         0.380388       0.241685
                                                         1.169596       0.320234
                                                         5.033151      -0.239413

                          1       2    2s                0.162491       0.289618
                                                         0.380388      -0.257800
                                                         1.169596      -0.000000
                                                         5.033151      -0.000284

                          1       3    2px               0.162491       0.000000
                                                         0.380388       0.166902
                                                         1.169596       1.053568
                                                         5.033151       1.675450
                          1       3    2py               0.162491       0.000000
                                                         0.380388       0.166902
                                                         1.169596       1.053568
                                                         5.033151       1.675450
                          1       3    2pz               0.162491       0.000000
                                                         0.380388       0.166902
                                                         1.169596       1.053568
                                                         5.033151       1.675450

                          1       4    3px               0.162491       0.166510
                                                         0.380388      -0.081234
                                                         1.169596      -0.994066
                                                         5.033151       0.014231
                          1       4    3py               0.162491       0.166510
                                                         0.380388      -0.081234
                                                         1.169596      -0.994066
                                                         5.033151       0.014231
                          1       4    3pz               0.162491       0.166510
                                                         0.380388      -0.081234
                                                         1.169596      -0.994066
                                                         5.033151       0.014231

                          2       1    1s              130.709321       4.251922
                                                        23.808866       4.112298
                                                         6.443608       1.281622

     RI Auxiliary Basis Set             RI_aug-SZV-MOLOPT-ae-mini_N_RI_028_s_p_d

       Number of orbital shell sets:                                          10
       Number of orbital shells:                                              10
       Number of primitive Cartesian functions:                               10
       Number of Cartesian basis functions:                                   31
       Number of spherical basis functions:                                   28
       Norm type:                                                              2

       Normalised Cartesian orbitals:

                        Set   Shell   Orbital            Exponent    Coefficient

                          1       1    1s                0.357489       0.329502

                          2       1    5px               0.409748       0.467289
                          2       1    5py               0.409748       0.467289
                          2       1    5pz               0.409748       0.467289

                          3       1    8dx2              0.443879       0.397304
                          3       1    8dxy              0.443879       0.688150
                          3       1    8dxz              0.443879       0.688150
                          3       1    8dy2              0.443879       0.397304
                          3       1    8dyz              0.443879       0.688150
                          3       1    8dz2              0.443879       0.397304

                          4       1    2s                1.054753       0.741777

                          5       1    6px               1.767021       2.903971
                          5       1    6py               1.767021       2.903971
                          5       1    6pz               1.767021       2.903971

                          6       1    9dx2              2.138835       6.226152
                          6       1    9dxy              2.138835      10.784012
                          6       1    9dxz              2.138835      10.784012
                          6       1    9dy2              2.138835       6.226152
                          6       1    9dyz              2.138835      10.784012
                          6       1    9dz2              2.138835       6.226152

                          7       1    3s                3.026195       1.635245

                          8       1   10dx2              8.012449      62.805651
                          8       1   10dxy              8.012449     108.782579
                          8       1   10dxz              8.012449     108.782579
                          8       1   10dy2              8.012449      62.805651
                          8       1   10dyz              8.012449     108.782579
                          8       1   10dz2              8.012449      62.805651

                          9       1    4s                8.361610       3.504512

                         10       1    7px               8.422062      20.450934
                         10       1    7py               8.422062      20.450934
                         10       1    7pz               8.422062      20.450934

       Atomic covalent radius [Angstrom]:                                  0.730

       Atomic van der Waals radius [Angstrom]:                             1.520

     The atoms of this atomic kind are PAW atoms (GAPW):
       Hard Gaussian function radius:                                      1.512
       Rho0 radius:                                                        1.512
       Maximum GTO radius used for PAW projector construction:            24.566

     GAPW Soft Basis Set                             aug-SZV-MOLOPT-ae-mini_soft

       Number of orbital shell sets:                                           2
       Number of orbital shells:                                               5
       Number of primitive Cartesian functions:                                3
       Number of Cartesian basis functions:                                    9
       Number of spherical basis functions:                                    9
       Norm type:                                                              2

       Normalised Cartesian orbitals:

                        Set   Shell   Orbital            Exponent    Coefficient

                          1       1    1s                0.162491       0.000000
                                                         0.380388       0.241685
                                                         1.169596       0.320234

                          1       2    2s                0.162491       0.289618
                                                         0.380388      -0.257800
                                                         1.169596      -0.000000

                          1       3    2px               0.162491       0.000000
                                                         0.380388       0.166902
                                                         1.169596       1.053568
                          1       3    2py               0.162491       0.000000
                                                         0.380388       0.166902
                                                         1.169596       1.053568
                          1       3    2pz               0.162491       0.000000
                                                         0.380388       0.166902
                                                         1.169596       1.053568

                          1       4    3px               0.162491       0.166510
                                                         0.380388      -0.081234
                                                         1.169596      -0.994066
                          1       4    3py               0.162491       0.166510
                                                         0.380388      -0.081234
                                                         1.169596      -0.994066
                          1       4    3pz               0.162491       0.166510
                                                         0.380388      -0.081234
                                                         1.169596      -0.994066

                          2       1    1s         

     AE Potential information for                                            ALL

       Description:                                       All-electron potential
                                          Krack, Parrinello, PCCP 2, 2105 (2000)

       Gaussian exponent of the core charge distribution:               8.154466
       Electronic configuration (s p d ...):                           4   4   0

  2. Atomic kind: N                                     Number of atoms:       1

     Orbital Basis Set                                    aug-SZV-MOLOPT-ae-mini

       Number of orbital shell sets:                                           2
       Number of orbital shells:                                               5
       Number of primitive Cartesian functions:                                7
       Number of Cartesian basis functions:                                    9
       Number of spherical basis functions:                                    9
       Norm type:                                                              2

       Normalised Cartesian orbitals:

                        Set   Shell   Orbital            Exponent    Coefficient

                          1       1    1s                0.112012       0.000000
                                                         0.285714       0.194997
                                                         0.878496       0.258372
                                                         3.780455      -0.193164

                          1       2    2s                0.112012      -0.247059
                                                         0.285714       0.355178
                                                         0.878496       0.105643
                                                         3.780455      -0.000189

                          1       3    2px               0.112012       0.000000
                                                         0.285714       0.116706
                                                         0.878496       0.736703
                                                         3.780455       1.171552
                          1       3    2py               0.112012       0.000000
                                                         0.285714       0.116706
                                                         0.878496       0.736703
                                                         3.780455       1.171552
                          1       3    2pz               0.112012       0.000000
                                                         0.285714       0.116706
                                                         0.878496       0.736703
                                                         3.780455       1.171552

                          1       4    3px               0.112012       0.096580
                                                         0.285714      -0.017996
                                                         0.878496       0.000162
                                                         3.780455       0.000013
                          1       4    3py               0.112012       0.096580
                                                         0.285714      -0.017996
                                                         0.878496       0.000162
                                                         3.780455       0.000013
                          1       4    3pz               0.112012       0.096580
                                                         0.285714      -0.017996
                                                         0.878496       0.000162
                                                         3.780455       0.000013

                          2       1    1s               99.106168       3.454863
                                                        18.052312       3.341413
                                                         4.885660       1.041372

     RI Auxiliary Basis Set             RI_aug-SZV-MOLOPT-ae-mini_N_RI_023_s_p_d

       Number of orbital shell sets:                                           9
       Number of orbital shells:                                               9
       Number of primitive Cartesian functions:                                9
       Number of Cartesian basis functions:                                   25
       Number of spherical basis functions:                                   23
       Norm type:                                                              2

       Normalised Cartesian orbitals:

                        Set   Shell   Orbital            Exponent    Coefficient

                          1       1    8dx2              0.247473       0.142917
                          1       1    8dxy              0.247473       0.247539
                          1       1    8dxz              0.247473       0.247539
                          1       1    8dy2              0.247473       0.142917
                          1       1    8dyz              0.247473       0.247539
                          1       1    8dz2              0.247473       0.142917

                          2       1    1s                0.269982       0.266939

                          3       1    5px               0.290292       0.303728
                          3       1    5py               0.290292       0.303728
                          3       1    5pz               0.290292       0.303728

                          4       1    2s                0.773829       0.588023

                          5       1    6px               1.337055       2.049400
                          5       1    6py               1.337055       2.049400
                          5       1    6pz               1.337055       2.049400

                          6       1    3s                2.228530       1.299942

                          7       1    9dx2              2.368474       7.442682
                          7       1    9dxy              2.368474      12.891104
                          7       1    9dxz              2.368474      12.891104
                          7       1    9dy2              2.368474       7.442682
                          7       1    9dyz              2.368474      12.891104
                          7       1    9dz2              2.368474       7.442682

                          8       1    7px               6.206242      13.962911
                          8       1    7py               6.206242      13.962911
                          8       1    7pz               6.206242      13.962911

                          9       1    4s                6.295867       2.832707

       Atomic covalent radius [Angstrom]:                                  0.750

       Atomic van der Waals radius [Angstrom]:                             1.550

     The atoms of this atomic kind are PAW atoms (GAPW):
       Hard Gaussian function radius:                                      1.512
       Rho0 radius:                                                        1.512
       Maximum GTO radius used for PAW projector construction:            24.566

     GAPW Soft Basis Set                             aug-SZV-MOLOPT-ae-mini_soft

       Number of orbital shell sets:                                           2
       Number of orbital shells:                                               5
       Number of primitive Cartesian functions:                                4
       Number of Cartesian basis functions:                                    9
       Number of spherical basis functions:                                    9
       Norm type:                                                              2

       Normalised Cartesian orbitals:

                        Set   Shell   Orbital            Exponent    Coefficient

                          1       1    1s                0.112012       0.000000
                                                         0.285714       0.194997
                                                         0.878496       0.258372
                                                         3.780455      -0.193164

                          1       2    2s                0.112012      -0.247059
                                                         0.285714       0.355178
                                                         0.878496       0.105643
                                                         3.780455      -0.000189

                          1       3    2px               0.112012       0.000000
                                                         0.285714       0.116706
                                                         0.878496       0.736703
                                                         3.780455       1.171552
                          1       3    2py               0.112012       0.000000
                                                         0.285714       0.116706
                                                         0.878496       0.736703
                                                         3.780455       1.171552
                          1       3    2pz               0.112012       0.000000
                                                         0.285714       0.116706
                                                         0.878496       0.736703
                                                         3.780455       1.171552

                          1       4    3px               0.112012       0.096580
                                                         0.285714      -0.017996
                                                         0.878496       0.000162
                                                         3.780455       0.000013
                          1       4    3py               0.112012       0.096580
                                                         0.285714      -0.017996
                                                         0.878496       0.000162
                                                         3.780455       0.000013
                          1       4    3pz               0.112012       0.096580
                                                         0.285714      -0.017996
                                                         0.878496       0.000162
                                                         3.780455       0.000013

                          2       1    1s         

     AE Potential information for                                            ALL

       Description:                                       All-electron potential
                                          Krack, Parrinello, PCCP 2, 2105 (2000)

       Gaussian exponent of the core charge distribution:               5.979100
       Electronic configuration (s p d ...):                           4   3   0

  3. Atomic kind: H                                     Number of atoms:       1

     Orbital Basis Set                                    aug-SZV-MOLOPT-ae-mini

       Number of orbital shell sets:                                           1
       Number of orbital shells:                                               4
       Number of primitive Cartesian functions:                                7
       Number of Cartesian basis functions:                                    6
       Number of spherical basis functions:                                    6
       Norm type:                                                              2

       Normalised Cartesian orbitals:

                        Set   Shell   Orbital            Exponent    Coefficient

                          1       1    1s                0.065428       0.000000
                                                         0.100112       0.016532
                                                         0.243077       0.102760
                                                         0.625955       0.185857
                                                         1.822143       0.188385
                                                         6.513144       0.143430
                                                        35.523221       0.095030

                          1       2    2s                0.065428       0.083549
                                                         0.100112       0.009605
                                                         0.243077       0.002524
                                                         0.625955       0.013457
                                                         1.822143       0.000000
                                                         6.513144       0.000000
                                                        35.523221       0.000000

                          1       3    3s                0.065428       0.037407
                                                         0.100112      -0.169070
                                                         0.243077      -0.018899
                                                         0.625955       0.012806
                                                         1.822143       0.000000
                                                         6.513144       0.000000
                                                        35.523221       0.000000

                          1       4    2px               0.065428       0.059908
                                                         0.100112      -0.023770
                                                         0.243077       0.000032
                                                         0.625955       0.017779
                                                         1.822143       0.000000
                                                         6.513144       0.000000
                                                        35.523221       0.000000
                          1       4    2py               0.065428       0.059908
                                                         0.100112      -0.023770
                                                         0.243077       0.000032
                                                         0.625955       0.017779
                                                         1.822143       0.000000
                                                         6.513144       0.000000
                                                        35.523221       0.000000
                          1       4    2pz               0.065428       0.059908
                                                         0.100112      -0.023770
                                                         0.243077       0.000032
                                                         0.625955       0.017779
                                                         1.822143       0.000000
                                                         6.513144       0.000000
                                                        35.523221       0.000000

     RI Auxiliary Basis Set             RI_aug-SZV-MOLOPT-ae_N_RI_007_s_p_d_f_g_

       Number of orbital shell sets:                                           5
       Number of orbital shells:                                               5
       Number of primitive Cartesian functions:                                5
       Number of Cartesian basis functions:                                    7
       Number of spherical basis functions:                                    7
       Norm type:                                                              2

       Normalised Cartesian orbitals:

                        Set   Shell   Orbital            Exponent    Coefficient

                          1       1    1s                0.148777       0.170731

                          2       1    5px               0.367452       0.407794
                          2       1    5py               0.367452       0.407794
                          2       1    5pz               0.367452       0.407794

                          3       1    2s                0.510503       0.430437

                          4       1    3s                1.106366       0.768837

                          5       1    4s                5.955292       2.716986

       Atomic covalent radius [Angstrom]:                                  0.320

       Atomic van der Waals radius [Angstrom]:                             1.090

     The atoms of this atomic kind are PAW atoms (GAPW):
       Hard Gaussian function radius:                                      1.200
       Rho0 radius:                                                        1.200
       Maximum GTO radius used for PAW projector construction:            24.566

     GAPW Soft Basis Set                             aug-SZV-MOLOPT-ae-mini_soft

       Number of orbital shell sets:                                           1
       Number of orbital shells:                                               4
       Number of primitive Cartesian functions:                                6
       Number of Cartesian basis functions:                                    6
       Number of spherical basis functions:                                    6
       Norm type:                                                              2

       Normalised Cartesian orbitals:

                        Set   Shell   Orbital            Exponent    Coefficient

                          1       1    1s                0.065428       0.000000
                                                         0.100112       0.016532
                                                         0.243077       0.102760
                                                         0.625955       0.185857
                                                         1.822143       0.188385
                                                         6.513144       0.000000

                          1       2    2s                0.065428       0.083549
                                                         0.100112       0.009605
                                                         0.243077       0.002524
                                                         0.625955       0.013457
                                                         1.822143       0.000000
                                                         6.513144       0.000000

                          1       3    3s                0.065428       0.037407
                                                         0.100112      -0.169070
                                                         0.243077      -0.018899
                                                         0.625955       0.012806
                                                         1.822143       0.000000
                                                         6.513144       0.000000

                          1       4    2px               0.065428       0.059908
                                                         0.100112      -0.023770
                                                         0.243077       0.000032
                                                         0.625955       0.017779
                                                         1.822143       0.000000
                                                         6.513144       0.000000
                          1       4    2py               0.065428       0.059908
                                                         0.100112      -0.023770
                                                         0.243077       0.000032
                                                         0.625955       0.017779
                                                         1.822143       0.000000
                                                         6.513144       0.000000
                          1       4    2pz               0.065428       0.059908
                                                         0.100112      -0.023770
                                                         0.243077       0.000032
                                                         0.625955       0.017779
                                                         1.822143       0.000000
                                                         6.513144       0.000000

     AE Potential information for                                            ALL

       Description:                                       All-electron potential
                                          Krack, Parrinello, PCCP 2, 2105 (2000)

       Gaussian exponent of the core charge distribution:              12.500000
       Electronic configuration (s p d ...):                           1   0   0


 MOLECULE KIND INFORMATION


 All atoms are their own molecule, skipping detailed information


 TOTAL NUMBERS AND MAXIMUM NUMBERS

  Total number of            - Atomic kinds:                                   3
                             - Atoms:                                          4
                             - Shell sets:                                     7
                             - Shells:                                        19
                             - Primitive Cartesian functions:                 28
                             - Cartesian basis functions:                     33
                             - Spherical basis functions:                     33

  Maximum angular momentum of the orbital basis functions:                     1


 MODULE QUICKSTEP: ATOMIC COORDINATES IN ANGSTROM

   Atom Kind Element         X             Y             Z       Z(eff)     Mass
      1    1 O     8     16.072744     15.038088     15.000000   8.0000  15.9994
      2    2 N     7     15.160084     15.792500     15.000000   7.0000  14.0067
      3    1 O     8     13.927256     15.158623     15.000000   8.0000  15.9994
      4    3 H     1     14.141540     14.207500     15.000000   1.0000   1.0079



 SCF PARAMETERS         Density guess:                                   RESTART
                        --------------------------------------------------------
                        max_scf:                                             500
                        max_scf_history:                                       0
                        max_diis:                                              4
                        --------------------------------------------------------
                        eps_scf:                                        1.00E-06
                        eps_scf_history:                                0.00E+00
                        eps_diis:                                       0.00E+00
                        eps_eigval:                                     1.00E-05
                        --------------------------------------------------------
                        level_shift [a.u.]:                             0.000000
                        --------------------------------------------------------
                        Outer loop SCF in use 
                        No variables optimised in outer loop
                        eps_scf                                         1.00E-06
                        max_scf                                               20
                        No outer loop optimization
                        step_size                                       5.00E-01

 PW_GRID| Information for grid number                                          1
 PW_GRID| Grid distributed over                                    16 processors
 PW_GRID| Real space group dimensions                                    16    1
 PW_GRID| the grid is blocked:                                                NO
 PW_GRID| Cutoff [a.u.]                                                    250.0
 PW_GRID| spherical cutoff:                                                   NO
 PW_GRID|   Bounds   1           -202     202                Points:         405
 PW_GRID|   Bounds   2           -202     202                Points:         405
 PW_GRID|   Bounds   3           -202     202                Points:         405
 PW_GRID| Volume element (a.u.^3)  0.2743E-02     Volume (a.u.^3)    182205.0337
 PW_GRID| Grid span                                                    FULLSPACE
 PW_GRID|   Distribution                         Average         Max         Min
 PW_GRID|   G-Vectors                          4151882.8     4152060     4151655
 PW_GRID|   G-Rays                               10251.6       10252       10251
 PW_GRID|   Real Space Points                  4151882.8     4264650     4100625

 PW_GRID| Information for grid number                                          2
 PW_GRID| Number of the reference grid                                         1
 PW_GRID| Grid distributed over                                    16 processors
 PW_GRID| Real space group dimensions                                    16    1
 PW_GRID| the grid is blocked:                                                NO
 PW_GRID| Cutoff [a.u.]                                                     83.3
 PW_GRID| spherical cutoff:                                                   NO
 PW_GRID|   Bounds   1           -120     119                Points:         240
 PW_GRID|   Bounds   2           -120     119                Points:         240
 PW_GRID|   Bounds   3           -120     119                Points:         240
 PW_GRID| Volume element (a.u.^3)  0.1318E-01     Volume (a.u.^3)    182205.0337
 PW_GRID| Grid span                                                    FULLSPACE
 PW_GRID|   Distribution                         Average         Max         Min
 PW_GRID|   G-Vectors                           864000.0      864720      863520
 PW_GRID|   G-Rays                                3600.0        3603        3598
 PW_GRID|   Real Space Points                   864000.0      864000      864000

 PW_GRID| Information for grid number                                          3
 PW_GRID| Number of the reference grid                                         1
 PW_GRID| Grid distributed over                                    16 processors
 PW_GRID| Real space group dimensions                                    16    1
 PW_GRID| the grid is blocked:                                                NO
 PW_GRID| Cutoff [a.u.]                                                     27.8
 PW_GRID| spherical cutoff:                                                   NO
 PW_GRID|   Bounds   1            -67      67                Points:         135
 PW_GRID|   Bounds   2            -67      67                Points:         135
 PW_GRID|   Bounds   3            -67      67                Points:         135
 PW_GRID| Volume element (a.u.^3)  0.7406E-01     Volume (a.u.^3)    182205.0337
 PW_GRID| Grid span                                                    FULLSPACE
 PW_GRID|   Distribution                         Average         Max         Min
 PW_GRID|   G-Vectors                           153773.4      154170      153630
 PW_GRID|   G-Rays                                1139.1        1142        1138
 PW_GRID|   Real Space Points                   153773.4      164025      145800

 PW_GRID| Information for grid number                                          4
 PW_GRID| Number of the reference grid                                         1
 PW_GRID| Grid distributed over                                    16 processors
 PW_GRID| Real space group dimensions                                    16    1
 PW_GRID| the grid is blocked:                                                NO
 PW_GRID| Cutoff [a.u.]                                                      9.3
 PW_GRID| spherical cutoff:                                                   NO
 PW_GRID|   Bounds   1            -40      39                Points:          80
 PW_GRID|   Bounds   2            -40      39                Points:          80
 PW_GRID|   Bounds   3            -40      39                Points:          80
 PW_GRID| Volume element (a.u.^3)  0.3559         Volume (a.u.^3)    182205.0337
 PW_GRID| Grid span                                                    FULLSPACE
 PW_GRID|   Distribution                         Average         Max         Min
 PW_GRID|   G-Vectors                            32000.0       32240       31840
 PW_GRID|   G-Rays                                 400.0         403         398
 PW_GRID|   Real Space Points                    32000.0       32000       32000

 POISSON| Solver                                                         WAVELET
 POISSON| Wavelet| Scaling function                                           40
 POISSON| Periodicity                                                       NONE

 RS_GRID| Information for grid number                                          1
 RS_GRID|   Bounds   1           -202     202                Points:         405
 RS_GRID|   Bounds   2           -202     202                Points:         405
 RS_GRID|   Bounds   3           -202     202                Points:         405
 RS_GRID| Real space distribution over                                  4 groups
 RS_GRID| Real space distribution along direction                              2
 RS_GRID| Border size                                                         33
 RS_GRID| Real space distribution over                                  4 groups
 RS_GRID| Real space distribution along direction                              3
 RS_GRID| Border size                                                         33
 RS_GRID|   Distribution                         Average         Max         Min
 RS_GRID|   Planes                                 167.2         168         167
 RS_GRID|   Distribution                         Average         Max         Min
 RS_GRID|   Planes                                 167.2         168         167

 RS_GRID| Information for grid number                                          2
 RS_GRID|   Bounds   1           -120     119                Points:         240
 RS_GRID|   Bounds   2           -120     119                Points:         240
 RS_GRID|   Bounds   3           -120     119                Points:         240
 RS_GRID| Real space distribution over                                  4 groups
 RS_GRID| Real space distribution along direction                              2
 RS_GRID| Border size                                                         35
 RS_GRID| Real space distribution over                                  4 groups
 RS_GRID| Real space distribution along direction                              3
 RS_GRID| Border size                                                         35
 RS_GRID|   Distribution                         Average         Max         Min
 RS_GRID|   Planes                                 130.0         130         130
 RS_GRID|   Distribution                         Average         Max         Min
 RS_GRID|   Planes                                 130.0         130         130

 RS_GRID| Information for grid number                                          3
 RS_GRID|   Bounds   1            -67      67                Points:         135
 RS_GRID|   Bounds   2            -67      67                Points:         135
 RS_GRID|   Bounds   3            -67      67                Points:         135
 RS_GRID| Real space fully replicated
 RS_GRID| Group size                                                           1

 RS_GRID| Information for grid number                                          4
 RS_GRID|   Bounds   1            -40      39                Points:          80
 RS_GRID|   Bounds   2            -40      39                Points:          80
 RS_GRID|   Bounds   3            -40      39                Points:          80
 RS_GRID| Real space fully replicated
 RS_GRID| Group size                                                           1

  HFX_INFO| Replica ID:                                                        1
  HFX_INFO| FRACTION:                                               0.2500000000
  HFX_INFO| Interaction Potential:                                       COULOMB
  HFX_INFO| EPS_SCHWARZ:                                                 1.0E-10
  HFX_INFO| EPS_SCHWARZ_FORCES                                           1.0E-08
  HFX_INFO| EPS_STORAGE_SCALING:                                         1.0E+00
  HFX_INFO| NBINS:                                                            64
  HFX_INFO| BLOCK_SIZE:                                                        1
  HFX_INFO| Number of periodic shells considered:                           NONE
  HFX_INFO| Number of periodic cells considered:                            NONE


 OVERLAP MATRIX CONDITION NUMBER
 1-Norm Condition Number (Estimate)
   CN : |A|*|A^-1|:  8.019E+000 *  3.429E+002   = 2.750E+003  Log(1-CN):  3.4393
 1-Norm and 2-Norm Condition Numbers using Diagonalization
   CN : |A|*|A^-1|:  8.019E+000 *  3.429E+002   = 2.750E+003  Log(1-CN):  3.4393
   CN : max/min ev:  5.268E+000 /  5.265E-003   = 1.001E+003  Log(2-CN):  3.0002

 Number of electrons:                                                         24
 Number of occupied orbitals:                                                 12
 Number of molecular orbitals:                                                12

 Number of orbital functions:                                                 33
 Number of independent orbital functions:                                     33

 Extrapolation method: initial_guess


 SCF WAVEFUNCTION OPTIMIZATION

  ----------------------------------- OT ---------------------------------------
  Minimizer      : CG                  : conjugate gradient
  Preconditioner : FULL_SINGLE_INVERSE : inversion of 
                                         H + eS - 2*(Sc)(c^T*H*c+const)(Sc)^T
  Precond_solver : DEFAULT
  Line search    : 3PNT                : 3 energies
  stepsize       :    0.08000000                  energy_gap     :    0.08000000
  eps_taylor     :   0.10000E-15                  max_taylor     :             4
  ----------------------------------- OT ---------------------------------------

  Step     Update method      Time    Convergence         Total energy    Change
  ------------------------------------------------------------------------------

  HFX_MEM_INFO| Est. max. program size before HFX [MiB]:                    2328
  HFX_MEM_INFO| Number of cart. primitive ERI's calculated:             10399659
  HFX_MEM_INFO| Number of sph. ERI's calculated:                          257867
  HFX_MEM_INFO| Number of sph. ERI's stored in-core:                      257867
  HFX_MEM_INFO| Number of sph. ERI's stored on disk:                           0
  HFX_MEM_INFO| Number of sph. ERI's calculated on the fly:                    0
  HFX_MEM_INFO| Total memory consumption ERI's RAM [MiB]:                      2
  HFX_MEM_INFO| Whereof max-vals [MiB]:                                        1
  HFX_MEM_INFO| Total compression factor ERI's RAM:                         1.77
  HFX_MEM_INFO| Total memory consumption ERI's disk [MiB]:                     0
  HFX_MEM_INFO| Total compression factor ERI's disk:                        0.00
  HFX_MEM_INFO| Size of density/Fock matrix [MiB]:                             0
  HFX_MEM_INFO| Size of buffers [MiB]:                                         0
  HFX_MEM_INFO| Est. max. program size after HFX  [MiB]:                    2863

     1 OT CG       0.64E-01    4.1     0.00000547      -203.0027101605 -2.03E+02
     - OT LS       0.32E-01    2.2                     -203.0027101578
     - OT LS       0.68E-02    2.2                     -203.0027101600
     2 OT CG       0.55E-02    3.0     0.00000298      -203.0027101606 -4.05E-11
     - OT LS       0.77E-02    2.2                     -203.0027101606
     - OT LS       0.30E-01    2.2                     -203.0027101606
     3 OT CG       0.24E-01    3.0     0.00000577      -203.0027101606 -5.06E-11
     - OT LS       0.33E-01    2.1                     -203.0027101608
     - OT LS       0.21E-01    2.1                     -203.0027101607
     4 OT CG       0.17E-01    3.0     0.00000541      -203.0027101608 -1.37E-10
     - OT LS       0.24E-01    2.2                     -203.0027101608
     - OT LS       0.12E-01    2.2                     -203.0027101608
     5 OT CG       0.95E-02    3.0     0.00000196      -203.0027101608 -6.89E-11
     - OT LS       0.13E-01    2.1                     -203.0027101608
     - OT LS       0.19E-01    2.2                     -203.0027101608
     6 OT CG       0.15E-01    3.0     0.00000200      -203.0027101608 -1.46E-11
     - OT LS       0.22E-01    2.2                     -203.0027101609
     - OT LS       0.16E-01    2.2                     -203.0027101609
     7 OT CG       0.13E-01    3.1     0.00000233      -203.0027101609 -1.22E-11
     - OT LS       0.18E-01    2.2                     -203.0027101609
     - OT LS       0.14E-01    2.2                     -203.0027101609
     8 OT CG       0.11E-01    3.0     0.00000174      -203.0027101609 -1.51E-11
     - OT LS       0.16E-01    2.2                     -203.0027101609
     - OT LS       0.14E-01    2.2                     -203.0027101609
     9 OT CG       0.11E-01    3.0     0.00000104      -203.0027101609 -8.10E-12
     - OT LS       0.15E-01    2.2                     -203.0027101609
     - OT LS       0.12E-01    2.1                     -203.0027101609
    10 OT CG       0.96E-02    3.0     0.00000067      -203.0027101609 -2.61E-12

  *** SCF run converged in    10 steps ***


  Electronic density on regular grids:        -17.5282582666        6.4717417334
  Core density on regular grids:               24.0000000000        0.0000000000
  Hard and soft densities (Lebedev):          -52.7905986457      -46.3188566730
  Total Rho_soft + Rho1_hard - Rho1_soft      -24.0000002393
  Total charge density (r-space):              -0.0000002393
  Total Rho_soft + Rho0_soft (g-space):        -0.0000003090

  Overlap energy of the core charge distribution:               0.00000013526205
  Self energy of the core charge distribution:               -195.03029115779105
  Core Hamiltonian energy:                                    -20.42402104059585
  Hartree energy:                                              58.54010420299028
  Exchange-correlation energy:                                 -6.99903485099055
  Hartree-Fock Exchange energy:                                -5.74598465442305

  GAPW| Exc from hard and soft atomic rho1:                   -11.02778013282719
  GAPW| local Eh = 1 center integrals:                        -22.31570266250744

  Total energy:                                              -203.00271016088283

  outer SCF iter =    1 RMS gradient =   0.67E-06 energy =       -203.0027101609
  outer SCF loop converged in   1 iterations or   28 steps


 !-----------------------------------------------------------------------------!
                     Mulliken Population Analysis

 #  Atom  Element  Kind  Atomic population                           Net charge
       1     O        1          8.035223                             -0.035223
       2     N        2          6.959174                              0.040826
       3     O        1          8.309532                             -0.309532
       4     H        3          0.696071                              0.303929
 # Total charge                             24.000000                  0.000000

 !-----------------------------------------------------------------------------!

 !-----------------------------------------------------------------------------!
                           Hirshfeld Charges

  #Atom  Element  Kind  Ref Charge     Population                    Net charge
      1       O      1       8.000          8.284                        -0.284
      2       N      2       7.000          6.725                         0.275
      3       O      1       8.000          8.593                        -0.593
      4       H      3       1.000          0.394                         0.606

  Total Charge                                                            0.003
 !-----------------------------------------------------------------------------!

 *******************************************************************************
 **                                                                           **
 **         ######## #######   #######   ######## #######  ########           **
 **            ##    ##     ## ##     ## ##       ##   ##     ##              **
 **            ##    ##     ## ##     ## ######   #######     ##              **
 **            ##    ##     ## ##     ## ##       ##          ##              **
 **            ##    #######   #######   ##       ##          ##              **
 **                                                                           **
 *******************************************************************************
 KERNEL|                                                                    FULL
 FUNCTIONAL| PBE:
 FUNCTIONAL| J.P.Perdew, K.Burke, M.Ernzerhof, Phys. Rev. Letter, vol. 77, n 18,
 FUNCTIONAL|  pp. 3865-3868, (1996)sx=0.750sc=1.000{spin unpolarized}           
 KERNEL|                                                          Exact Exchange
 KERNEL| Spin symmetry of excitations                                    Singlet
 TDDFPT| Number of states calculated                                          20
 TDDFPT| Number of Davidson iterations                                       100
 TDDFPT| Davidson iteration convergence                                0.367E-07
 TDDFPT| Max. number of Krylov space vectors                                5000
 TDDFPT| Molecular Orbitals:        Spin       AOs       Occ      Virt     Total
 TDDFPT|                               1        33        12        21        33
 
 -------------------------------------------------------------------------------
 -                            TDDFPT Initial Guess                             -
 -------------------------------------------------------------------------------
          State         Occupied      ->      Virtual          Excitation
          number         orbital              orbital          energy (eV)
 -------------------------------------------------------------------------------
             1               12                   13              5.87723
             2               11                   13              7.79935
             3               10                   13              8.82358
             4               12                   14              9.39025
             5               12                   15             11.25123
             6               11                   14             11.31237
             7               12                   16             11.59628
             8                9                   13             11.98791
             9                8                   13             12.18173
            10               12                   17             12.26819
            11               10                   14             12.33660
            12               12                   18             12.86028
            13               11                   15             13.17336
            14                7                   13             13.27393
            15               11                   16             13.51840
            16               12                   19             13.91870
            17               11                   17             14.19032
            18               10                   15             14.19759
            19               10                   16             14.54263
            20               11                   18             14.78240

      Number of active states:                                        252
 -------------------------------------------------------------------------------
 
 -------------------------------------------------------------------------------
 -                      TDDFPT WAVEFUNCTION OPTIMIZATION                       -
 -------------------------------------------------------------------------------

          Step            Time         Convergence           Conv. states
 -------------------------------------------------------------------------------

    State    Exc. energy (eV)      Convergence (eV)
        1       3.6755176            -2.2017E+00
        2       6.8268924            -9.7246E-01
        3       7.2665198            -1.5571E+00
        4       8.5075625            -8.8268E-01
        5       9.5862438            -1.6650E+00
        6       9.7132645            -1.5991E+00
        7      10.3064378            -1.2898E+00
        8      10.4237118            -1.5642E+00
        9      10.9360143            -1.2457E+00
       10      10.9937619            -1.2744E+00
       11      11.0365378            -1.3001E+00
       12      11.4093242            -1.4510E+00
       13      11.7749011            -1.3985E+00
       14      12.4326131            -8.4132E-01
       15      12.6913799            -8.2702E-01
       16      12.8204352            -1.0983E+00
       17      12.9663391            -1.2240E+00
       18      13.2053745            -9.9221E-01
       19      14.5216470            -2.0982E-02
       20      16.7120888             1.9297E+00

             1            60.0          8.0911E-02                      0

    State    Exc. energy (eV)      Convergence (eV)
        1       3.6319117            -4.3606E-02
        2       6.7633047            -6.3588E-02
        3       7.0154549            -2.5106E-01
        4       8.3580357            -1.4953E-01
        5       9.5447675            -4.1476E-02
        6       9.6587411            -5.4523E-02
        7      10.1269313            -1.7951E-01
        8      10.2921222            -1.3159E-01
        9      10.8605345            -7.5480E-02
       10      10.9431762            -5.0586E-02
       11      10.9889236            -4.7614E-02
       12      11.2350812            -1.7424E-01
       13      11.5699600            -2.0494E-01
       14      12.1340191            -2.9859E-01
       15      12.3411049            -3.5027E-01
       16      12.4548165            -3.6562E-01
       17      12.6576752            -3.0866E-01
       18      12.9282867            -2.7709E-01
       19      13.1839573            -1.3377E+00
       20      13.2302819            -3.4818E+00

             2            60.4          1.2795E-01                      0

    State    Exc. energy (eV)      Convergence (eV)
        1       3.6318369            -7.4798E-05
        2       6.7631638            -1.4087E-04
        3       7.0132328            -2.2221E-03
        4       8.3564444            -1.5912E-03
        5       9.5445461            -2.2141E-04
        6       9.6585253            -2.1580E-04
        7      10.1232479            -3.6835E-03
        8      10.2919977            -1.2447E-04
        9      10.8599698            -5.6477E-04
       10      10.9416828            -1.4934E-03
       11      10.9883048            -6.1877E-04
       12      11.2337304            -1.3508E-03
       13      11.5655813            -4.3786E-03
       14      12.0162861            -1.1773E-01
       15      12.3288188            -1.2286E-02
       16      12.4377934            -1.7023E-02
       17      12.6567588            -9.1640E-04
       18      12.9271439            -1.1428E-03
       19      13.0696095            -1.1435E-01
       20      13.1836820            -4.6600E-02

             3            59.7          4.3266E-03                      0

    State    Exc. energy (eV)      Convergence (eV)
        1       3.6318368            -7.1309E-08
        2       6.7631636            -2.2037E-07
        3       7.0132287            -4.0866E-06
        4       8.3564389            -5.5620E-06
        5       9.5445455            -5.6347E-07
        6       9.6585249            -4.4750E-07
        7      10.1232370            -1.0923E-05
        8      10.2919974            -3.0215E-07
        9      10.8599663            -3.4637E-06
       10      10.9416709            -1.1894E-05
       11      10.9882989            -5.9071E-06
       12      11.2337251            -5.3122E-06
       13      11.5655565            -2.4820E-05
       14      12.0139006            -2.3855E-03
       15      12.3286984            -1.2034E-04
       16      12.4376676            -1.2583E-04
       17      12.6567544            -4.3804E-06
       18      12.9271186            -2.5249E-05
       19      13.0655471            -4.0624E-03
       20      13.1836762            -5.8289E-06

             4            59.3          1.4929E-04                      5

    State    Exc. energy (eV)      Convergence (eV)
        1       3.6318368            -3.3214E-11
        2       6.7631636            -2.3607E-10
        3       7.0132287            -7.2128E-09
        4       8.3564389            -1.3189E-08
        5       9.5445455            -5.2159E-10
        6       9.6585249            -6.1906E-10
        7      10.1232369            -3.3088E-08
        8      10.2919974            -6.2701E-10
        9      10.8599663            -1.6261E-08
       10      10.9416708            -5.1842E-08
       11      10.9882989            -9.1783E-09
       12      11.2337251            -1.0713E-08
       13      11.5655563            -2.1238E-07
       14      12.0138811            -1.9520E-05
       15      12.3286970            -1.4609E-06
       16      12.4376661            -1.5326E-06
       17      12.6567544            -8.5159E-09
       18      12.9271185            -1.5490E-07
       19      13.0654232            -1.2388E-04
       20      13.1836761            -3.1661E-08

             5            59.4          4.5524E-06                     16

    State    Exc. energy (eV)      Convergence (eV)
        1       3.6318368             4.1540E-14
        2       6.7631636            -1.5634E-13
        3       7.0132287            -6.6690E-12
        4       8.3564389            -2.4661E-11
        5       9.5445455            -3.8972E-13
        6       9.6585249            -6.1026E-13
        7      10.1232369            -7.0834E-11
        8      10.2919974            -4.6222E-13
        9      10.8599663            -4.5567E-11
       10      10.9416708            -1.5067E-10
       11      10.9882989            -1.2282E-11
       12      11.2337251            -1.7548E-11
       13      11.5655563            -6.4308E-10
       14      12.0138810            -5.1858E-08
       15      12.3286970            -5.4029E-09
       16      12.4376661            -6.3005E-09
       17      12.6567544            -2.1395E-11
       18      12.9271185            -4.5617E-10
       19      13.0654224            -8.2322E-07
       20      13.1836761            -8.4265E-11

             6            59.3          3.0253E-08                     20
 
 -------------------------------------------------------------------------------
 -  TDDFPT run converged in 6 iteration(s) 
 -------------------------------------------------------------------------------

 R-TDDFPT states of multiplicity 1
 Transition dipoles calculated using velocity formulation

         State    Excitation        Transition dipole (a.u.)        Oscillator
         number   energy (eV)       x           y           z     strength (a.u.)
         ------------------------------------------------------------------------
 TDDFPT|      1       3.63184  -1.5494E-07  5.6042E-07  3.8110E-01   1.29229E-02
 TDDFPT|      2       6.76316   1.7040E-07  2.9071E-07 -2.8849E-01   1.37899E-02
 TDDFPT|      3       7.01323  -1.4425E-01  1.3174E-01 -5.6611E-07   6.55764E-03
 TDDFPT|      4       8.35644  -3.1280E-01 -4.1354E-01  3.0078E-08   5.50429E-02
 TDDFPT|      5       9.54455  -1.1294E-06 -9.6864E-08  1.1031E-01   2.84548E-03
 TDDFPT|      6       9.65852   1.0224E-06  2.8552E-07  1.6959E-01   6.80591E-03
 TDDFPT|      7      10.12324  -6.1379E-01 -2.7356E-01 -2.5834E-07   1.11996E-01
 TDDFPT|      8      10.29200   6.7221E-07  3.9238E-07 -2.9817E-01   2.24171E-02
 TDDFPT|      9      10.85997   8.1648E-02 -3.1877E-01 -1.4442E-07   2.88104E-02
 TDDFPT|     10      10.94167   3.1207E-01 -2.8036E-01  6.6979E-07   4.71771E-02
 TDDFPT|     11      10.98830  -8.2421E-07  5.8070E-07  2.0823E-01   1.16726E-02
 TDDFPT|     12      11.23373   7.4788E-08  6.7494E-08  3.4046E-01   3.19020E-02
 TDDFPT|     13      11.56556   1.4724E-01  4.1066E-01 -6.3033E-07   5.39278E-02
 TDDFPT|     14      12.01388  -8.8891E-02  3.1993E-01 -3.0179E-08   3.24524E-02
 TDDFPT|     15      12.32870  -8.6379E-03 -5.6137E-02  2.0495E-07   9.74400E-04
 TDDFPT|     16      12.43767  -1.8428E-01  5.7143E-02 -4.2628E-08   1.13428E-02
 TDDFPT|     17      12.65675   2.2236E-07  3.5849E-08  1.2987E-01   5.22999E-03
 TDDFPT|     18      12.92712   1.3113E-07  2.1516E-08 -2.2646E-01   1.62416E-02
 TDDFPT|     19      13.06542   4.3215E-01  1.2216E-01 -4.8749E-07   6.45566E-02
 TDDFPT|     20      13.18368  -7.1083E-07 -2.3103E-07 -1.4798E-01   7.07316E-03

 TDDFPT : CheckSum  =  0.176700E+01
 
 -------------------------------------------------------------------------------
 -                            Excitation analysis                              -
 -------------------------------------------------------------------------------
        State             Occupied              Virtual             Excitation
        number             orbital              orbital             amplitude
 -------------------------------------------------------------------------------
             1   3.63184 eV
                                12                   13              -0.994165
                                10                   13               0.077515
             2   6.76316 eV
                                10                   13               0.991890
                                12                   13               0.076179
                                 9                   13              -0.067600
[...]
 -------------------------------------------------------------------------------
 
 CP2K version 2025.1 (Development Version), the CP2K developers group (2025).
 CP2K is freely available from https://www.cp2k.org/ .
 
 T. D. Kuehne, M. Iannuzzi, M. Del Ben, V. V. Rybkin, P. Seewald, F. Stein, T. 
 Laino, R. Z. Khaliullin, O. Schuett, F. Schiffmann, D. Golze, J. Wilhelm, S. 
 Chulkov, M. H. Bani-Hashemian, V. Weber, U. Borstnik, M. Taillefumier, A. S. 
 Jakobovits, A. Lazzaro, H. Pabst, T. Mueller, R. Schade, M. Guidon, S. 
 Andermatt, N. Holmberg, G. K. Schenter, A. Hehn, A. Bussy, F. Belleflamme, G. 
 Tabacchi, A. Gloess, M. Lass, I. Bethune, C. J. Mundy, C. Plessl, M. Watkins, 
 J. VandeVondele, M. Krack, J. Hutter.
 J. Chem. Phys. 152, 194103 (2020).
 CP2K: An electronic structure and molecular dynamics software package - 
 Quickstep: Efficient and accurate electronic structure calculations.
 https://doi.org/10.1063/5.0007045

 O. Schuett, P. Messmer, J. Hutter, J. VandeVondele.
 Electronic Structure Calculations on Graphics Processing Units, 173-190 (2016).
 GPU-Accelerated Sparse Matrix-Matrix Multiplication for Linear Scaling Density 
 Functional Theory.
 https://doi.org/10.1002/9781118670712.ch8

 A. Heinecke, G. Henry, M. Hutchinson, H. Pabst.
 Proceedings of Intl. Supercomputing Conference, 981-991 (2016).
 LIBXSMM: Accelerating Small Matrix Multiplications by Runtime Code Generation.
 https://doi.org/10.1109/SC.2016.83

 J. Hutter, M. Iannuzzi, F. Schiffmann, J. VandeVondele.
 WIREs Comput Mol Sci. 4, 15-25 (2014).
 CP2K: atomistic simulations of condensed matter systems.
 https://doi.org/10.1002/wcms.1159

 U. Borstnik, J. VandeVondele, V. Weber, J. Hutter.
 Parallel Comput. 40, 47-58 (2014).
 Sparse matrix multiplication: The distributed block-compressed sparse row 
 library.
 https://doi.org/10.1016/j.parco.2014.03.012

 A. Marek, V. Blum, R. Johanni, V. Havu, B. Lang, T. Auckenthaler, A. Heinecke, 
 H. Bungartz, H. Lederer.
 J. Phys. Condens. Matter 26, 213201 (2014).
 The ELPA library: scalable parallel eigenvalue solutions for electronic 
 structure theory and computational science.
 https://doi.org/10.1088/0953-8984/26/21/213201

 M. Guidon, J. Hutter, J. VandeVondele.
 J. Chem. Theory Comput. 5, 3010-3021 (2009).
 Robust Periodic Hartree-Fock Exchange for Large-Scale Simulations Using 
 Gaussian Basis Sets.
 https://doi.org/10.1021/ct900494g

 M. Guidon, F. Schiffmann, J. Hutter, J. VandeVondele.
 J. Chem. Phys. 128, 214104 (2008).
 Ab initio molecular dynamics using hybrid density functionals.
 https://doi.org/10.1063/1.2931945

 L. Genovese, T. Deutsch, S. Goedecker.
 J. Chem. Phys. 127, 054704 (2007).
 Efficient and accurate three-dimensional Poisson solver for surface problems.
 https://doi.org/10.1063/1.2754685

 J. VandeVondele, J. Hutter.
 J. Chem. Phys. 127, 114105 (2007).
 Gaussian basis sets for accurate calculations on molecular systems in gas and 
 condensed phases.
 https://doi.org/10.1063/1.2770708

 L. Genovese, T. Deutsch, A. Neelov, S. Goedecker, G. Beylkin.
 J. Chem. Phys. 125, 074105 (2006).
 Efficient solution of Poisson's equation with free boundary conditions.
 https://doi.org/10.1063/1.2335442

 M. Iannuzzi, T. Chassaing, T. Wallman, J. Hutter.
 CHIMIA 59, 499-503 (2005).
 Ground and excited state density functional calculations with the Gaussian and 
 augmented-plane-wave method.
 https://doi.org/10.2533/000942905777676164

 M. Frigo, S. G. Johnson.
 Proc. IEEE 93, 216-231 (2005).
 The design and implementation of FFTW3.
 https://doi.org/10.1109/JPROC.2004.840301

 J. VandeVondele, J. Hutter.
 J. Chem. Phys. 118, 4365-4369 (2003).
 An efficient orbital transformation method for electronic structure 
 calculations.
 https://doi.org/10.1063/1.1543154

 R. L. Martin.
 J. Chem. Phys. 118, 4775-4777 (2003).
 Natural transition orbitals.
 https://doi.org/10.1063/1.1558471

 M. Krack, M. Parrinello.
 Phys. Chem. Chem. Phys. 2, 2105-2112 (2000).
 All-electron ab-initio molecular dynamics.
 https://doi.org/10.1039/b001167n

 G. Lippert, J. Hutter, M. Parrinello.
 Theor. Chem. Acc. 103, 124-140 (1999).
 The Gaussian and augmented-plane-wave density functional method for ab initio 
 molecular dynamics simulations.
 https://doi.org/10.1007/s002140050523

 J. P. Perdew, K. Burke, M. Ernzerhof.
 Phys. Rev. Lett. 77, 3865-3868 (1996).
 Generalized gradient approximation made simple.
 https://doi.org/10.1103/PhysRevLett.77.3865


 -------------------------------------------------------------------------------
 -                                                                             -
 -                                T I M I N G                                  -
 -                                                                             -
 -------------------------------------------------------------------------------
 SUBROUTINE                       CALLS  ASD         SELF TIME        TOTAL TIME
                                MAXIMUM       AVERAGE  MAXIMUM  AVERAGE  MAXIMUM
 CP2K                                 1  1.0    0.019    0.028  432.089  432.094
 qs_energies                          1  2.0    0.000    0.000  431.076  431.082
 qs_energies_properties               1  3.0    0.000    0.000  359.511  359.516
 tddfpt                               1  4.0    0.001    0.002  359.511  359.516
 tddfpt_energies                      1  5.0    0.000    0.000  359.501  359.505
 tddfpt_davidson_solver               1  6.0    0.000    0.001  358.182  358.186
 tddfpt_compute_Aop_evects            6  7.0    0.000    0.000  357.927  357.931
 fhxc_kernel                          6  8.0    0.004    0.004  352.695  352.699
 fft_wrap_pw1pw2                   2813 11.3    0.057    0.063  216.103  217.417
 fft_wrap_pw1pw2_250               1973 12.4    8.182    8.621  209.027  212.294
 pw_poisson_solve                   148  9.6    4.416    5.046  153.564  153.818
 fft3d_ps                          2813 13.3   74.125   78.746  144.816  149.655
 tddfpt_apply_coulomb               120  9.0    0.002    0.002  145.710  146.063
 tddfpt_apply_xc_analytic           120  9.0    0.574    0.622  108.185  108.567
 xc_pw_derive                       837 11.0    0.006    0.007   98.886   99.626
 ps_wavelet_solve                   148 10.6   82.051   86.985   97.208   97.607
 scf_env_do_scf                       1  3.0    0.000    0.000   70.685   70.686
 scf_env_do_scf_inner_loop           28  4.0    0.001    0.001   66.565   66.566
 xc_calc_2nd_deriv_analytical       600 10.3    4.315    4.576   63.099   63.660
 xc_pw_divergence                   130 10.9    0.003    0.003   61.832   62.986
 qs_rho_update_rho_low              150  8.2    0.002    0.002   60.500   60.501
 calculate_rho_elec                 150  9.2    2.331    2.394   60.461   60.462
 qs_ks_update_qs_env                 29  5.0    0.000    0.000   59.268   59.269
 rebuild_ks_matrix                   28  6.0    0.000    0.000   59.266   59.267
 qs_ks_build_kohn_sham_matrix        28  7.0    0.004    0.004   59.266   59.267
 mp_alltoall_z22v                  2813 15.3   44.899   55.424   44.899   55.424
 density_rs2pw                      150 10.2    0.006    0.006   47.670   48.160
 mp_alltoall_d54                    148 11.6   10.110   45.591   10.110   45.591
 x_to_yz                           1395 14.0   13.679   14.725   37.520   41.492
 yz_to_x                           1418 14.6   12.064   12.952   33.122   38.480
 pw_gather_p                       1418 13.6   28.771   33.699   28.771   33.699
 integrate_v_rspace                 130  9.0    0.003    0.004   30.469   30.538
 potential_pw2rs                    130 10.0    0.050    0.053   30.355   30.391
 prepare_gapw_den                   149  8.8    0.002    0.002   26.236   27.233
 put_rho0_on_grid                   149  9.8    2.327    2.390   26.063   27.060
 pw_scatter_p                      1395 13.0   25.188   25.705   25.188   25.705
 transfer_pw2rs                     669 10.9    0.010    0.011   19.949   20.572
 mp_waitany                       17180 13.0   13.539   17.897   13.539   17.897
 transfer_rs2pw                     750 11.1    0.013    0.017   17.127   17.819
 qs_vxc_create                       28  8.0    0.000    0.000   17.815   17.817
 transfer_pw2rs_250                 279 11.8    5.393    6.438   14.552   15.739
 transfer_rs2pw_250                 300 12.0    5.338    6.444   12.631   13.577
 xc_rho_set_and_dset_create          29  9.9    0.243    0.271   11.705   13.239
 pw_derive                         1281 11.9   11.246   11.783   11.246   11.783
 grid_collocate_task_list           150 10.2    9.902   10.396    9.902   10.396
 integrate_vhg0_rspace              148  9.6    0.022    0.029    9.609    9.636
 xc_vxc_pw_create                    10  9.0    0.225    0.236    9.502    9.504
 mp_alltoall_d11v                 10269 11.7    4.884    8.944    4.884    8.944
 xc_exc_calc                         18  9.0    0.281    0.291    8.313    8.313
 mp_waitall_1                     74259 14.0    4.984    7.513    4.984    7.513
 cp2k_distribution_to_z_slices      148 10.6    3.552    4.230    6.553    7.356
 fft_wrap_pw1pw2_90                 280 12.1    0.215    0.231    6.031    7.188
 mp_alltoall_d45                    149 11.6    4.093    7.034    4.093    7.034
 mp_sum_d                          2179  7.9    4.104    6.892    4.104    6.892
 pw_copy                           1895 11.0    6.449    6.785    6.449    6.785
 pw_poisson_set                     149 10.6    0.003    0.003    6.096    6.383
 integrate_four_center              268  9.9    2.597    5.374    5.797    5.828
 pw_copy_to_array                  1418 13.6    5.246    5.669    5.246    5.669
 mp_sync                           1395 11.6    2.790    5.344    2.790    5.344
 pw_integral_ab_c1d_c1d_gs          148 10.6    3.261    3.518    4.623    5.221
 tddfpt_apply_hfx                     6  8.0    0.001    0.001    5.141    5.141
 pw_axpy                           1518 11.0    4.812    5.055    4.812    5.055
 tddft_hfx_matrix                   240  9.0    0.002    0.002    4.810    4.830
 transfer_pw2rs_90                  130 12.0    0.678    0.838    3.636    4.245
 init_scf_loop                        1  4.0    0.000    0.000    4.119    4.119
 pw_copy_from_array                1395 13.0    3.578    3.778    3.578    3.778
 pw_zero                           1716 10.6    3.272    3.475    3.272    3.475
 mp_isend_dm3                      3436 13.0    0.913    3.403    0.913    3.403
 rs_grid_zero                       707 11.9    3.098    3.222    3.098    3.222
 transfer_rs2pw_90                  150 12.2    0.698    0.845    2.665    2.942
 mp_isend_dv                      23519 13.5    1.160    2.842    1.160    2.842
 xc_functional_eval                 621 10.8    0.001    0.001    0.701    2.330
 pbe_lda_eval                       621 11.8    0.701    2.328    0.701    2.328
 sum_up_and_integrate                10  8.0    0.000    0.000    2.314    2.326
 transfer_pw2rs_30                  130 12.0    0.533    0.587    1.426    1.790
 mp_irecv_dm3                      3436 13.0    0.319    1.731    0.319    1.731
 mp_max_i                           614  4.1    0.796    1.699    0.796    1.699
 transfer_rs2pw_30                  150 12.2    0.512    0.627    1.427    1.535
 prepare_dr1dr                      600 11.3    1.293    1.476    1.293    1.476
 mp_sum_dm                         1818 10.3    0.765    1.409    0.765    1.409
 mp_sendrecv_dv                    4500 13.2    1.201    1.301    1.201    1.301
 Vh_1c_gg_integrals                 148  9.6    0.010    0.030    0.540    1.280
 mp_irecv_dv                      22653 13.5    0.219    1.236    0.219    1.236
 scale_and_distribute               296 11.6    1.047    1.229    1.047    1.229
 pw_poisson_rebuild                 148 10.6    0.000    0.000    0.982    1.013
 ps_wavelet_create                    1 10.0    0.000    0.000    0.982    1.013
 RS_z_slice_distribution              1 11.0    0.890    0.953    0.982    1.013
 hfx_ks_matrix                       28  8.0    0.000    0.000    0.989    1.002
 fft_wrap_pw1pw2_30                 280 12.1    0.040    0.043    0.794    0.950
 qs_init_subsys                       1  2.0    0.001    0.001    0.808    0.808
 qs_env_setup                         1  3.0    0.000    0.000    0.805    0.806
 qs_env_rebuild_pw_env                2  3.5    0.000    0.000    0.805    0.806
 pw_env_rebuild                       1  5.0    0.000    0.000    0.805    0.806
 pw_grid_setup                        4  6.0    0.000    0.000    0.800    0.800
 pw_grid_setup_internal               4  7.0    0.011    0.011    0.800    0.800
 pw_grid_sort                         4  8.0    0.470    0.486    0.655    0.677
 cp_dbcsr_sm_fm_multiply            767  8.5    0.007    0.008    0.655    0.669
 create_kernel_env                    1  6.0    0.000    0.000    0.548    0.607
 xc_prep_2nd_deriv                    1  7.0    0.000    0.000    0.548    0.607
 calculate_xc_2nd_deriv_atom        120  9.0    0.036    0.145    0.104    0.600
 tddfpt_construct_ground_state_       1  6.0    0.000    0.000    0.581    0.589
 dbcsr_multiply_generic            1244 10.2    0.023    0.024    0.511    0.517
 init_scf_run                         1  3.0    0.000    0.000    0.495    0.495
 scf_env_initial_rho_setup            1  4.0    0.000    0.000    0.495    0.495
 transfer_rs2pw_10                  150 12.2    0.105    0.119    0.391    0.458
 pw_scale                           280  9.5    0.380    0.425    0.380    0.425
 dbcsr_complete_redistribute       2415 10.6    0.045    0.056    0.356    0.403
 copy_dbcsr_to_fm                   797  9.4    0.005    0.005    0.309    0.403
 transfer_pw2rs_10                  130 12.0    0.096    0.105    0.325    0.395
 gaVxcgb_GC                         260  9.9    0.037    0.322    0.037    0.322
 cp_dbcsr_sm_fm_multiply_core       767  9.5    0.001    0.001    0.287    0.292
 mp_alltoall_i22                   3231 11.5    0.214    0.260    0.214    0.260
 qs_energies_init_hamiltonians        1  3.0    0.000    0.000    0.250    0.250
 build_core_hamiltonian_matrix        1  4.0    0.000    0.000    0.232    0.232
 overlap_condnum                      1  5.0    0.000    0.000    0.232    0.232
 fft_wrap_pw1pw2_10                 280 12.1    0.009    0.010    0.193    0.230
 powell_optimize                 153914 11.0    0.226    0.229    0.226    0.229
 copy_fm_to_dbcsr                  1616  9.6    0.004    0.004    0.192    0.216
 parallel_gemm_fm                  1034  8.3    0.001    0.001    0.176    0.214
 parallel_gemm_fm_cosma            1034  9.3    0.176    0.214    0.176    0.214
 make_m2s                          2488 11.2    0.010    0.011    0.195    0.207
 multiply_cannon                   1244 11.2    0.065    0.070    0.187    0.196
 sort_shells                          4  9.0    0.185    0.192    0.185    0.192
 calc_screening_functions             1 10.0    0.051    0.052    0.182    0.185
 update_ks_atom                     148  8.8    0.007    0.009    0.071    0.176
 make_images                       2488 12.2    0.023    0.024    0.166    0.176
 dbcsr_desymmetrize_deep            798 10.4    0.007    0.008    0.170    0.174
 mp_bcast_dm                       1214  9.9    0.066    0.172    0.066    0.172
 create_qs_kind_set                   1  2.0    0.000    0.000    0.163    0.165
 read_qs_kind                         3  3.0    0.032    0.048    0.163    0.164
 calculate_rho_atom                 447  9.8    0.099    0.163    0.099    0.163
 grid_integrate_task_list           130 10.0    0.049    0.162    0.049    0.162
 hybrid_alltoall_any               3286 13.5    0.011    0.012    0.044    0.159
 calc_pair_dist_radii                 1 10.0    0.055    0.056    0.150    0.151
 cp_dbcsr_plus_fm_fm_t              121  9.0    0.001    0.001    0.144    0.146
 xc_2nd_deriv_of_r                  480 10.0    0.003    0.020    0.019    0.144
 rs_gather_matrices                 130 10.0    0.001    0.002    0.060    0.142
 tddfpt_orthonormalize_psi1_psi       7  6.9    0.005    0.005    0.142    0.142
 scf_post_calculation_gpw             1  3.0    0.000    0.000    0.135    0.135
 write_available_results              1  4.0    0.000    0.000    0.135    0.135
 write_mo_free_results                1  5.0    0.019    0.019    0.135    0.135
 parser_read_line                 13838  4.0    0.002    0.002    0.132    0.134
 parser_read_line_low                23  5.0    0.006    0.088    0.129    0.132
 broadcast_input_information         23  6.0    0.004    0.004    0.123    0.131
 mp_sum_dv                         9310  9.1    0.109    0.121    0.109    0.121
 mp_bcast_i_src                      97  7.0    0.107    0.116    0.107    0.116
 qs_scf_new_mos                      28  5.0    0.000    0.000    0.109    0.110
 qs_scf_loop_do_ot                   28  6.0    0.000    0.000    0.109    0.110
 tddfpt_print_nto_analysis            1  6.0    0.001    0.002    0.103    0.103
 ot_scf_mini                         28  7.0    0.000    0.000    0.097    0.098
 tddfpt_orthogonalize_psi1_psi0       7  6.9    0.000    0.000    0.061    0.096
 tddfpt_apply_energy_diff             6  8.0    0.000    0.000    0.090    0.091
 tddfpt_compute_residual_vects        5  7.0    0.000    0.000    0.090    0.090
 pw_grid_assign                       4  8.0    0.079    0.081    0.080    0.083
 mp_alltoall_i11v                  8097 11.6    0.038    0.080    0.038    0.080
 make_images_sizes                 2488 13.2    0.002    0.002    0.070    0.080
 multiply_cannon_loop              1244 12.2    0.014    0.014    0.075    0.080
 mp_alltoall_i44                   2488 14.2    0.068    0.078    0.068    0.078
 calculate_vxc_atom                  28  8.0    0.010    0.023    0.077    0.078
 pw_grid_remap                        4  8.0    0.019    0.019    0.046    0.070
 dbcsr_finalize                    5133 11.3    0.011    0.013    0.062    0.068
 mp_sum_l                          5033 10.3    0.055    0.068    0.055    0.068
 hirshfeld_integration                1  6.0    0.000    0.001    0.067    0.067
 offload_free_buffer                156 10.2    0.049    0.060    0.049    0.060
 cp_fm_norm                           2  6.0    0.025    0.059    0.025    0.059
 mp_cart_create                    1246 10.8    0.055    0.058    0.056    0.059
 integrate_four_center_main         268 10.9    0.021    0.033    0.044    0.059
 make_images_data                  2488 13.2    0.012    0.014    0.039    0.057
 cp_fm_to_fm_columns                178  7.1    0.010    0.057    0.010    0.057
 tddfpt_guess_vectors                 1  6.0    0.000    0.000    0.009    0.056
 mp_cart_sub                       1596 11.4    0.050    0.051    0.050    0.051
 mp_sum_im3                           4  9.0    0.027    0.051    0.027    0.051
 calculate_hirshfeld_normalizat       1  6.0    0.000    0.001    0.046    0.049
 dbcsr_create_new                 17443 11.6    0.034    0.035    0.045    0.047
 cp_fm_trace_a1b1t1_aa             7470  8.0    0.013    0.013    0.045    0.045
 -------------------------------------------------------------------------------

 The number of warnings for this run is : 0
 
 -------------------------------------------------------------------------------
  **** **** ******  **  PROGRAM ENDED AT                 2025-07-01 21:12:11.161
 ***** ** ***  *** **   PROGRAM RAN ON                     n2cn0394.ab2021.local
 **    ****   ******    PROGRAM RAN BY                                  metdyn02
 ***** **    ** ** **   PROGRAM PROCESS ID                               1721523
  **** **  *******  **  PROGRAM STOPPED IN /scratch/hpc-prf-metdyn/metdyn02_Remi
                                           /10_MOL/05_MOL/W4-11+ALK/c-hono/mini-
                                           SZV/TDDFT/1e-4
