 DBCSR| CPU Multiplication driver                                           BLAS (U)
 DBCSR| Multrec recursion limit                                              512 (U)
 DBCSR| Multiplication stack size                                           1000 (D)
 DBCSR| Maximum elements for images                                    UNLIMITED (U)
 DBCSR| Multiplicative factor virtual images                                   1 (U)
 DBCSR| Use multiplication densification                                       T (D)
 DBCSR| Multiplication size stacks                                             3 (U)
 DBCSR| Use memory pool for CPU allocation                                     F (U)
 DBCSR| Number of 3D layers                                               SINGLE (U)
 DBCSR| Use MPI memory allocation                                              F (U)
 DBCSR| Use RMA algorithm                                                      F (U)
 DBCSR| Use Communication thread                                               T (U)
 DBCSR| Communication thread load                                             75 (D)
 DBCSR| MPI: My process id                                                     0
 DBCSR| MPI: Number of processes                                             216
 DBCSR| OMP: Current number of threads                                         4
 DBCSR| OMP: Max number of threads                                             4
 DBCSR| Split modifier for TAS multiplication algorithm                  1.0E+00 (U)


  **** **** ******  **  PROGRAM STARTED AT               2025-03-30 19:59:34.802
 ***** ** ***  *** **   PROGRAM STARTED ON                          i04r01c03s12
 **    ****   ******    PROGRAM STARTED BY                               di38fab
 ***** **    ** ** **   PROGRAM PROCESS ID                               3100494
  **** **  *******  **  PROGRAM STARTED IN /hppfs/scratch/04/di38fab/07_MOL_non_
                                           aug/05_MOL_non_aug/05_MOL/aUKBqsEOTmq
                                           69kFe5R_nOg/5k_set_final_qzvp/YEBHAQ/
                                           cc-pVQZ/GW+BSE

 CP2K| version string:                 CP2K version 2025.1 (Development Version)
 CP2K| source code revision number:                                  git:d2e611a
 CP2K| cp2kflags: omp libint fftw3 libxc parallel scalapack max_contr=4         
 CP2K| is freely available from                            https://www.cp2k.org/
 CP2K| Program compiled at                       Thu 06 Mar 2025 05:09:20 PM CET
 CP2K| Program compiled on                                               login02
 CP2K| Program compiled for                                        Supermuc-foss
 CP2K| Data directory path                  /hppfs/work/pn36zo/di38fab/cp2k/data
 CP2K| Input file name                                                    GW.inp

 GLOBAL| Force Environment number                                              1
 GLOBAL| Basis set file name            /hppfs/scratch/04/di38fab/04_TMD/BASIS_A
 GLOBAL| Potential file name            /hppfs/work/pn36zo/di38fab/cp2k/data/ALL
 GLOBAL| MM Potential file name                                     MM_POTENTIAL
 GLOBAL| Coordinate file name                                      __STD_INPUT__
 GLOBAL| Method name                                                        CP2K
 GLOBAL| Project name                                                       MoS2
 GLOBAL| Run type                                                         ENERGY
 GLOBAL| FFT library                                                       FFTW3
 GLOBAL| Diagonalization library                                       ScaLAPACK
 GLOBAL| DGEMM library                                                      BLAS
 GLOBAL| Orthonormality check for eigenvectors                          DISABLED
 GLOBAL| Matrix multiplication library                                 ScaLAPACK
 GLOBAL| All-to-all communication in single precision                          F
 GLOBAL| FFTs using library dependent lengths                                  F
 GLOBAL| Grid backend                                                       AUTO
 GLOBAL| Global print level                                               MEDIUM
 GLOBAL| MPI I/O enabled                                                       T
 GLOBAL| Total number of message passing processes                           216
 GLOBAL| Number of threads for this process                                    4
 GLOBAL| This output is from process                                           0
 GLOBAL| OpenMP stack size per thread (OMP_STACKSIZE)                    default
 GLOBAL| CPU model name             Intel(R) Xeon(R) Platinum 8174 CPU @ 3.10GHz

 MEMORY| system memory details [Kb]
 MEMORY|                        rank 0           min           max       average
 MEMORY| MemTotal             98436896      98436660      98436896      98436678
 MEMORY| MemFree              84047800      83640680      84280332      84037797
 MEMORY| Buffers                     0             0             0             0
 MEMORY| Cached                2468476       2383916       2476956       2428014
 MEMORY| Slab                  1223584       1201768       1253388       1235742
 MEMORY| SReclaimable           272992        270744        288040        278318
 MEMORY| MemLikelyFree        86789268      86337312      87017844      86744130


 *** Fundamental physical constants (SI units) ***

 *** Literature: B. J. Mohr and B. N. Taylor,
 ***             CODATA recommended values of the fundamental physical
 ***             constants: 2006, Web Version 5.1
 ***             http://physics.nist.gov/constants

 Speed of light in vacuum [m/s]                             2.99792458000000E+08
 Magnetic constant or permeability of vacuum [N/A**2]       1.25663706143592E-06
 Electric constant or permittivity of vacuum [F/m]          8.85418781762039E-12
 Planck constant (h) [J*s]                                  6.62606896000000E-34
 Planck constant (h-bar) [J*s]                              1.05457162825177E-34
 Elementary charge [C]                                      1.60217648700000E-19
 Electron mass [kg]                                         9.10938215000000E-31
 Electron g factor [ ]                                     -2.00231930436220E+00
 Proton mass [kg]                                           1.67262163700000E-27
 Fine-structure constant                                    7.29735253760000E-03
 Rydberg constant [1/m]                                     1.09737315685270E+07
 Avogadro constant [1/mol]                                  6.02214179000000E+23
 Boltzmann constant [J/K]                                   1.38065040000000E-23
 Atomic mass unit [kg]                                      1.66053878200000E-27
 Bohr radius [m]                                            5.29177208590000E-11

 *** Conversion factors ***

 [u] -> [a.u.]                                              1.82288848426455E+03
 [Angstrom] -> [Bohr] = [a.u.]                              1.88972613288564E+00
 [a.u.] = [Bohr] -> [Angstrom]                              5.29177208590000E-01
 [a.u.] -> [s]                                              2.41888432650478E-17
 [a.u.] -> [fs]                                             2.41888432650478E-02
 [a.u.] -> [J]                                              4.35974393937059E-18
 [a.u.] -> [N]                                              8.23872205491840E-08
 [a.u.] -> [K]                                              3.15774647902944E+05
 [a.u.] -> [kJ/mol]                                         2.62549961709828E+03
 [a.u.] -> [kcal/mol]                                       6.27509468713739E+02
 [a.u.] -> [Pa]                                             2.94210107994716E+13
 [a.u.] -> [bar]                                            2.94210107994716E+08
 [a.u.] -> [atm]                                            2.90362800883016E+08
 [a.u.] -> [eV]                                             2.72113838565563E+01
 [a.u.] -> [Hz]                                             6.57968392072181E+15
 [a.u.] -> [1/cm] (wave numbers)                            2.19474631370540E+05
 [a.u./Bohr**2] -> [1/cm]                                   5.14048714338585E+03
 

 CELL_TOP| Volume [angstrom^3]:                                     27000.000000
 CELL_TOP| Vector a [angstrom    30.000     0.000     0.000   |a| =    30.000000
 CELL_TOP| Vector b [angstrom     0.000    30.000     0.000   |b| =    30.000000
 CELL_TOP| Vector c [angstrom     0.000     0.000    30.000   |c| =    30.000000
 CELL_TOP| Angle (b,c), alpha [degree]:                                90.000000
 CELL_TOP| Angle (a,c), beta  [degree]:                                90.000000
 CELL_TOP| Angle (a,b), gamma [degree]:                                90.000000
 CELL_TOP| Numerically orthorhombic:                                         YES
 CELL_TOP| Periodicity                                                      NONE

 GENERATE|  Preliminary Number of Bonds generated:                             0
 GENERATE|  Achieved consistency in connectivity generation.

 CELL| Volume [angstrom^3]:                                         27000.000000
 CELL| Vector a [angstrom]:      30.000     0.000     0.000   |a| =    30.000000
 CELL| Vector b [angstrom]:       0.000    30.000     0.000   |b| =    30.000000
 CELL| Vector c [angstrom]:       0.000     0.000    30.000   |c| =    30.000000
 CELL| Angle (b,c), alpha [degree]:                                    90.000000
 CELL| Angle (a,c), beta  [degree]:                                    90.000000
 CELL| Angle (a,b), gamma [degree]:                                    90.000000
 CELL| Numerically orthorhombic:                                             YES
 CELL| Periodicity                                                          NONE

 CELL_REF| Volume [angstrom^3]:                                     27000.000000
 CELL_REF| Vector a [angstrom    30.000     0.000     0.000   |a| =    30.000000
 CELL_REF| Vector b [angstrom     0.000    30.000     0.000   |b| =    30.000000
 CELL_REF| Vector c [angstrom     0.000     0.000    30.000   |c| =    30.000000
 CELL_REF| Angle (b,c), alpha [degree]:                                90.000000
 CELL_REF| Angle (a,c), beta  [degree]:                                90.000000
 CELL_REF| Angle (a,b), gamma [degree]:                                90.000000
 CELL_REF| Numerically orthorhombic:                                         YES
 CELL_REF| Periodicity                                                      NONE

 *******************************************************************************
 *******************************************************************************
 **                                                                           **
 **     #####                         ##              ##                      **
 **    ##   ##            ##          ##              ##                      **
 **   ##     ##                       ##            ######                    **
 **   ##     ##  ##   ##  ##   #####  ##  ##   ####   ##    #####    #####    **
 **   ##     ##  ##   ##  ##  ##      ## ##   ##      ##   ##   ##  ##   ##   **
 **   ##  ## ##  ##   ##  ##  ##      ####     ###    ##   ######   ######    **
 **    ##  ###   ##   ##  ##  ##      ## ##      ##   ##   ##       ##        **
 **     #######   #####   ##   #####  ##  ##  ####    ##    #####   ##        **
 **           ##                                                    ##        **
 **                                                                           **
 **                                                ... make the atoms dance   **
 **                                                                           **
 **            Copyright (C) by CP2K developers group (2000-2025)             **
 **                      J. Chem. Phys. 152, 194103 (2020)                    **
 **                                                                           **
 *******************************************************************************

 DFT| Spin restricted Kohn-Sham (RKS) calculation                            RKS
 DFT| Multiplicity                                                             1
 DFT| Number of spin states                                                    1
 DFT| Charge                                                                   0
 DFT| Self-interaction correction (SIC)                                       NO
 DFT| Cutoffs: density                                              1.000000E-10
 DFT|          gradient                                             1.000000E-10
 DFT|          tau                                                  1.000000E-10
 DFT|          cutoff_smoothing_range                               0.000000E+00
 DFT| XC density smoothing                                                  NONE
 DFT| XC derivatives                                                          PW

 FUNCTIONAL| PBE:
 FUNCTIONAL| J.P.Perdew, K.Burke, M.Ernzerhof, Phys. Rev. Letter, vol. 77, n 18,
 FUNCTIONAL|  pp. 3865-3868, (1996)sx=0.750sc=1.000{spin unpolarized}           


 QS| Method:                                                                GAPW
 QS| Density plane wave grid type                        NON-SPHERICAL FULLSPACE
 QS| Number of grid levels:                                                    4
 QS| Density cutoff [a.u.]:                                                250.0
 QS| Multi grid cutoff [a.u.]: 1) grid level                               250.0
 QS|                           2) grid level                                83.3
 QS|                           3) grid level                                27.8
 QS|                           4) grid level                                 9.3
 QS| Grid level progression factor:                                          3.0
 QS| Relative density cutoff [a.u.]:                                        50.0
 QS| Interaction thresholds: eps_pgf_orb:                                1.0E-12
 QS|                         eps_filter_matrix:                          0.0E+00
 QS|                         eps_core_charge:                            1.0E-14
 QS|                         eps_rho_gspace:                             1.0E-12
 QS|                         eps_rho_rspace:                             1.0E-12
 QS|                         eps_gvg_rspace:                             1.0E-06
 QS|                         eps_ppl:                                    1.0E-02
 QS|                         eps_ppnl:                                   1.0E-08
 QS| GAPW|      One center basis from orbital basis primitives
 QS| GAPW|                   eps_fit:                                    1.0E-04
 QS| GAPW|                   eps_iso:                                    1.0E-12
 QS| GAPW|                   eps_svd:                                    1.0E-08
 QS| GAPW|                   eps_cpc:                                    1.0E-12
 QS| GAPW|   atom-r-grid: quadrature:                                     GC_LOG
 QS| GAPW|      atom-s-grid:  max l :                                          8
 QS| GAPW|      max_l_rho0 :                                                   2


 ATOMIC KIND INFORMATION

  1. Atomic kind: C                                     Number of atoms:       4

     Orbital Basis Set                                                   cc-pVQZ

       Number of orbital shell sets:                                           5
       Number of orbital shells:                                              15
       Number of primitive Cartesian functions:                               24
       Number of Cartesian basis functions:                                   70
       Number of spherical basis functions:                                   55
       Norm type:                                                              2

       Normalised Cartesian orbitals:

                        Set   Shell   Orbital            Exponent    Coefficient

                          1       1    1px              34.510000       0.000000
                                                         7.915000       0.000000
                                                         2.368000       0.000000
                                                         0.813200       1.100745
                                                         0.289000       0.000000
                                                         0.100700       0.000000
                          1       1    1py              34.510000       0.000000
                                                         7.915000       0.000000
                                                         2.368000       0.000000
                                                         0.813200       1.100745
                                                         0.289000       0.000000
                                                         0.100700       0.000000
                          1       1    1pz              34.510000       0.000000
                                                         7.915000       0.000000
                                                         2.368000       0.000000
                                                         0.813200       1.100745
                                                         0.289000       0.000000
                                                         0.100700       0.000000

                          1       2    2px              34.510000       0.641198
                                                         7.915000       0.683747
                                                         2.368000       0.596637
                                                         0.813200       0.376620
                                                         0.289000       0.140105
                                                         0.100700       0.020217
                          1       2    2py              34.510000       0.641198
                                                         7.915000       0.683747
                                                         2.368000       0.596637
                                                         0.813200       0.376620
                                                         0.289000       0.140105
                                                         0.100700       0.020217
                          1       2    2pz              34.510000       0.641198
                                                         7.915000       0.683747
                                                         2.368000       0.596637
                                                         0.813200       0.376620
                                                         0.289000       0.140105
                                                         0.100700       0.020217

                          1       3    3px              34.510000       0.000000
                                                         7.915000       0.000000
                                                         2.368000       0.000000
                                                         0.813200       0.000000
                                                         0.289000       0.302039
                                                         0.100700       0.000000
                          1       3    3py              34.510000       0.000000
                                                         7.915000       0.000000
                                                         2.368000       0.000000
                                                         0.813200       0.000000
                                                         0.289000       0.302039
                                                         0.100700       0.000000
                          1       3    3pz              34.510000       0.000000
                                                         7.915000       0.000000
                                                         2.368000       0.000000
                                                         0.813200       0.000000
                                                         0.289000       0.302039
                                                         0.100700       0.000000

                          1       4    4px              34.510000       0.000000
                                                         7.915000       0.000000
                                                         2.368000       0.000000
                                                         0.813200       0.000000
                                                         0.289000       0.000000
                                                         0.100700       0.080859
                          1       4    4py              34.510000       0.000000
                                                         7.915000       0.000000
                                                         2.368000       0.000000
                                                         0.813200       0.000000
                                                         0.289000       0.000000
                                                         0.100700       0.080859
                          1       4    4pz              34.510000       0.000000
                                                         7.915000       0.000000
                                                         2.368000       0.000000
                                                         0.813200       0.000000
                                                         0.289000       0.000000
                                                         0.100700       0.080859

                          2       1    1s            33980.000000       0.162319
                                                      5089.000000       0.302313
                                                      1157.000000       0.522143
                                                       326.600000       0.841034
                                                       106.100000       1.247069
                                                        38.110000       1.607436
                                                        14.750000       1.639463
                                                         6.035000       1.095889
                                                         2.530000       0.310322
                                                         0.735500       0.008997
                                                         0.290500      -0.000870
                                                         0.111100       0.000134

                          2       2    2s            33980.000000       0.000000
                                                      5089.000000       0.000000
                                                      1157.000000       0.000000
                                                       326.600000       0.000000
                                                       106.100000       0.000000
                                                        38.110000       0.000000
                                                        14.750000       0.000000
                                                         6.035000       0.000000
                                                         2.530000       0.000000
                                                         0.735500       0.566040
                                                         0.290500       0.000000
                                                         0.111100       0.000000

                          2       3    3s            33980.000000       0.000000
                                                      5089.000000       0.000000
                                                      1157.000000       0.000000
                                                       326.600000       0.000000
                                                       106.100000       0.000000
                                                        38.110000       0.000000
                                                        14.750000       0.000000
                                                         6.035000       0.000000
                                                         2.530000       0.000000
                                                         0.735500       0.000000
                                                         0.290500       0.282013
                                                         0.111100       0.000000

                          2       4    4s            33980.000000      -0.033891
                                                      5089.000000      -0.064843
                                                      1157.000000      -0.110989
                                                       326.600000      -0.182005
                                                       106.100000      -0.271236
                                                        38.110000      -0.373428
                                                        14.750000      -0.413970
                                                         6.035000      -0.388287
                                                         2.530000      -0.168734
                                                         0.735500       0.154985
                                                         0.290500       0.165404
                                                         0.111100       0.039147

                          2       5    5s            33980.000000       0.000000
                                                      5089.000000       0.000000
                                                      1157.000000       0.000000
                                                       326.600000       0.000000
                                                       106.100000       0.000000
                                                        38.110000       0.000000
                                                        14.750000       0.000000
                                                         6.035000       0.000000
                                                         2.530000       0.000000
                                                         0.735500       0.000000
                                                         0.290500       0.000000
                                                         0.111100       0.137150

                          3       1    1dx2              1.848000       4.821009
                                                         0.649000       0.000000
                                                         0.228000       0.000000
                          3       1    1dxy              1.848000       8.350232
                                                         0.649000       0.000000
                                                         0.228000       0.000000
                          3       1    1dxz              1.848000       8.350232
                                                         0.649000       0.000000
                                                         0.228000       0.000000
                          3       1    1dy2              1.848000       4.821009
                                                         0.649000       0.000000
                                                         0.228000       0.000000
                          3       1    1dyz              1.848000       8.350232
                                                         0.649000       0.000000
                                                         0.228000       0.000000
                          3       1    1dz2              1.848000       4.821009
                                                         0.649000       0.000000
                                                         0.228000       0.000000

                          3       2    2dx2              1.848000       0.000000
                                                         0.649000       0.772392
                                                         0.228000       0.000000
                          3       2    2dxy              1.848000       0.000000
                                                         0.649000       1.337822
                                                         0.228000       0.000000
                          3       2    2dxz              1.848000       0.000000
                                                         0.649000       1.337822
                                                         0.228000       0.000000
                          3       2    2dy2              1.848000       0.000000
                                                         0.649000       0.772392
                                                         0.228000       0.000000
                          3       2    2dyz              1.848000       0.000000
                                                         0.649000       1.337822
                                                         0.228000       0.000000
                          3       2    2dz2              1.848000       0.000000
                                                         0.649000       0.772392
                                                         0.228000       0.000000

                          3       3    3dx2              1.848000       0.000000
                                                         0.649000       0.000000
                                                         0.228000       0.123821
                          3       3    3dxy              1.848000       0.000000
                                                         0.649000       0.000000
                                                         0.228000       0.214465
                          3       3    3dxz              1.848000       0.000000
                                                         0.649000       0.000000
                                                         0.228000       0.214465
                          3       3    3dy2              1.848000       0.000000
                                                         0.649000       0.000000
                                                         0.228000       0.123821
                          3       3    3dyz              1.848000       0.000000
                                                         0.649000       0.000000
                                                         0.228000       0.214465
                          3       3    3dz2              1.848000       0.000000
                                                         0.649000       0.000000
                                                         0.228000       0.123821

                          4       1    1fx3              1.419000       3.235302
                                                         0.485000       0.000000
                          4       1    1fx2y             1.419000       7.234355
                                                         0.485000       0.000000
                          4       1    1fx2z             1.419000       7.234355
                                                         0.485000       0.000000
                          4       1    1fxy2             1.419000       7.234355
                                                         0.485000       0.000000
                          4       1    1fxyz             1.419000      12.530271
                                                         0.485000       0.000000
                          4       1    1fxz2             1.419000       7.234355
                                                         0.485000       0.000000
                          4       1    1fy3              1.419000       3.235302
                                                         0.485000       0.000000
                          4       1    1fy2z             1.419000       7.234355
                                                         0.485000       0.000000
                          4       1    1fyz2             1.419000       7.234355
                                                         0.485000       0.000000
                          4       1    1fz3              1.419000       3.235302
                                                         0.485000       0.000000

                          4       2    2fx3              1.419000       0.000000
                                                         0.485000       0.288984
                          4       2    2fx2y             1.419000       0.000000
                                                         0.485000       0.646187
                          4       2    2fx2z             1.419000       0.000000
                                                         0.485000       0.646187
                          4       2    2fxy2             1.419000       0.000000
                                                         0.485000       0.646187
                          4       2    2fxyz             1.419000       0.000000
                                                         0.485000       1.119229
                          4       2    2fxz2             1.419000       0.000000
                                                         0.485000       0.646187
                          4       2    2fy3              1.419000       0.000000
                                                         0.485000       0.288984
                          4       2    2fy2z             1.419000       0.000000
                                                         0.485000       0.646187
                          4       2    2fyz2             1.419000       0.000000
                                                         0.485000       0.646187
                          4       2    2fz3              1.419000       0.000000
                                                         0.485000       0.288984

                          5       1    1gx4              1.011000       1.146835
                          5       1    1gx3y             1.011000       3.034241
                          5       1    1gx3z             1.011000       3.034241
                          5       1    1gx2y2            1.011000       3.917189
                          5       1    1gx2yz            1.011000       6.784770
                          5       1    1gx2z2            1.011000       3.917189
                          5       1    1gxy3             1.011000       3.034241
                          5       1    1gxy2z            1.011000       6.784770
                          5       1    1gxyz2            1.011000       6.784770
                          5       1    1gxz3             1.011000       3.034241
                          5       1    1gy4              1.011000       1.146835
                          5       1    1gy3z             1.011000       3.034241
                          5       1    1gy2z2            1.011000       3.917189
                          5       1    1gyz3             1.011000       3.034241
                          5       1    1gz4              1.011000       1.146835

     RI Auxiliary Basis Set                                        cc-pVQZ-RIFIT

       Number of orbital shell sets:                                          30
       Number of orbital shells:                                              30
       Number of primitive Cartesian functions:                               30
       Number of Cartesian basis functions:                                  181
       Number of spherical basis functions:                                  132
       Norm type:                                                              2

       Normalised Cartesian orbitals:

                        Set   Shell   Orbital            Exponent    Coefficient

                          1       1    1px               0.245452       0.246262
                          1       1    1py               0.245452       0.246262
                          1       1    1pz               0.245452       0.246262

                          2       1    1s                0.249261       0.251421

                          3       1    1fx3              0.348633       0.137494
                          3       1    1fx2y             0.348633       0.307445
                          3       1    1fx2z             0.348633       0.307445
                          3       1    1fxy2             0.348633       0.307445
                          3       1    1fxyz             0.348633       0.532510
                          3       1    1fxz2             0.348633       0.307445
                          3       1    1fy3              0.348633       0.137494
                          3       1    1fy2z             0.348633       0.307445
                          3       1    1fyz2             0.348633       0.307445
                          3       1    1fz3              0.348633       0.137494

                          4       1    1dx2              0.352145       0.264955
                          4       1    1dxy              0.352145       0.458916
                          4       1    1dxz              0.352145       0.458916
                          4       1    1dy2              0.352145       0.264955
                          4       1    1dyz              0.352145       0.458916
                          4       1    1dz2              0.352145       0.264955

                          5       1    1s                0.489646       0.417178

                          6       1    1px               0.517168       0.625144
                          6       1    1py               0.517168       0.625144
                          6       1    1pz               0.517168       0.625144

                          7       1    1dx2              0.599456       0.672178
                          7       1    1dxy              0.599456       1.164246
                          7       1    1dxz              0.599456       1.164246
                          7       1    1dy2              0.599456       0.672178
                          7       1    1dyz              0.599456       1.164246
                          7       1    1dz2              0.599456       0.672178

                          8       1    1gx4              0.713257       0.439402
                          8       1    1gx3y             0.713257       1.162547
                          8       1    1gx3z             0.713257       1.162547
                          8       1    1gx2y2            0.713257       1.500842
                          8       1    1gx2yz            0.713257       2.599535
                          8       1    1gx2z2            0.713257       1.500842
                          8       1    1gxy3             0.713257       1.162547
                          8       1    1gxy2z            0.713257       2.599535
                          8       1    1gxyz2            0.713257       2.599535
                          8       1    1gxz3             0.713257       1.162547
                          8       1    1gy4              0.713257       0.439402
                          8       1    1gy3z             0.713257       1.162547
                          8       1    1gy2z2            0.713257       1.500842
                          8       1    1gyz3             0.713257       1.162547
                          8       1    1gz4              0.713257       0.439402

                          9       1    1fx3              0.729795       0.724697
                          9       1    1fx2y             0.729795       1.620471
                          9       1    1fx2z             0.729795       1.620471
                          9       1    1fxy2             0.729795       1.620471
                          9       1    1fxyz             0.729795       2.806738
                          9       1    1fxz2             0.729795       1.620471
                          9       1    1fy3              0.729795       0.724697
                          9       1    1fy2z             0.729795       1.620471
                          9       1    1fyz2             0.729795       1.620471
                          9       1    1fz3              0.729795       0.724697

                         10       1    1s                0.872371       0.643333

                         11       1    1dx2              1.031012       1.736286
                         11       1    1dxy              1.031012       3.007336
                         11       1    1dxz              1.031012       3.007336
                         11       1    1dy2              1.031012       1.736286
                         11       1    1dyz              1.031012       3.007336
                         11       1    1dz2              1.031012       1.736286

                         12       1    1px               1.053382       1.521151
                         12       1    1py               1.053382       1.521151
                         12       1    1pz               1.053382       1.521151

                         13       1    1gx4              1.349558       2.537826
                         13       1    1gx3y             1.349558       6.714456
                         13       1    1gx3z             1.349558       6.714456
                         13       1    1gx2y2            1.349558       8.668326
                         13       1    1gx2yz            1.349558      15.013981
                         13       1    1gx2z2            1.349558       8.668326
                         13       1    1gxy3             1.349558       6.714456
                         13       1    1gxy2z            1.349558      15.013981
                         13       1    1gxyz2            1.349558      15.013981
                         13       1    1gxz3             1.349558       6.714456
                         13       1    1gy4              1.349558       2.537826
                         13       1    1gy3z             1.349558       6.714456
                         13       1    1gy2z2            1.349558       8.668326
                         13       1    1gyz3             1.349558       6.714456
                         13       1    1gz4              1.349558       2.537826

                         14       1    1hx5              1.486936       2.693359
                         14       1    1hx4y             1.486936       8.080076
                         14       1    1hx4z             1.486936       8.080076
                         14       1    1hx3y2            1.486936      12.342519
                         14       1    1hx3yz            1.486936      21.377871
                         14       1    1hx3z2            1.486936      12.342519
                         14       1    1hx2y3            1.486936      12.342519
                         14       1    1hx2y2z           1.486936      27.598712
                         14       1    1hx2yz2           1.486936      27.598712
                         14       1    1hx2z3            1.486936      12.342519
                         14       1    1hxy4             1.486936       8.080076
                         14       1    1hxy3z            1.486936      21.377871
                         14       1    1hxy2z2           1.486936      27.598712
                         14       1    1hxyz3            1.486936      21.377871
                         14       1    1hxz4             1.486936       8.080076
                         14       1    1hy5              1.486936       2.693359
                         14       1    1hy4z             1.486936       8.080076
                         14       1    1hy3z2            1.486936      12.342519
                         14       1    1hy2z3            1.486936      12.342519
                         14       1    1hyz4             1.486936       8.080076
                         14       1    1hz5              1.486936       2.693359

                         15       1    1s                1.639209       1.032490

                         16       1    1px               1.688444       2.743459
                         16       1    1py               1.688444       2.743459
                         16       1    1pz               1.688444       2.743459

                         17       1    1fx3              1.738978       5.112301
                         17       1    1fx2y             1.738978      11.431452
                         17       1    1fx2z             1.738978      11.431452
                         17       1    1fxy2             1.738978      11.431452
                         17       1    1fxyz             1.738978      19.799856
                         17       1    1fxz2             1.738978      11.431452
                         17       1    1fy3              1.738978       5.112301
                         17       1    1fy2z             1.738978      11.431452
                         17       1    1fyz2             1.738978      11.431452
                         17       1    1fz3              1.738978       5.112301

                         18       1    1dx2              2.204215       6.563024
                         18       1    1dxy              2.204215      11.367491
                         18       1    1dxz              2.204215      11.367491
                         18       1    1dy2              2.204215       6.563024
                         18       1    1dyz              2.204215      11.367491
                         18       1    1dz2              2.204215       6.563024

                         19       1    1fx3              2.263014       9.246997
                         19       1    1fx2y             2.263014      20.676914
                         19       1    1fx2z             2.263014      20.676914
                         19       1    1fxy2             2.263014      20.676914
                         19       1    1fxyz             2.263014      35.813466
                         19       1    1fxz2             2.263014      20.676914
                         19       1    1fy3              2.263014       9.246997
                         19       1    1fy2z             2.263014      20.676914
                         19       1    1fyz2             2.263014      20.676914
                         19       1    1fz3              2.263014       9.246997

                         20       1    1gx4              2.812776      19.123049
                         20       1    1gx3y             2.812776      50.594833
                         20       1    1gx3z             2.812776      50.594833
                         20       1    1gx2y2            2.812776      65.317648
                         20       1    1gx2yz            2.812776     113.133486
                         20       1    1gx2z2            2.812776      65.317648
                         20       1    1gxy3             2.812776      50.594833
                         20       1    1gxy2z            2.812776     113.133486
                         20       1    1gxyz2            2.812776     113.133486
                         20       1    1gxz3             2.812776      50.594833
                         20       1    1gy4              2.812776      19.123049
                         20       1    1gy3z             2.812776      50.594833
                         20       1    1gy2z2            2.812776      65.317648
                         20       1    1gyz3             2.812776      50.594833
                         20       1    1gz4              2.812776      19.123049

                         21       1    1px               3.590642       7.045394
                         21       1    1py               3.590642       7.045394
                         21       1    1pz               3.590642       7.045394

                         22       1    1s                4.179168       2.083183

                         23       1    1fx3              5.448411      66.766969
                         23       1    1fx2y             5.448411     149.295482
                         23       1    1fx2z             5.448411     149.295482
                         23       1    1fxy2             5.448411     149.295482
                         23       1    1fxyz             5.448411     258.587361
                         23       1    1fxz2             5.448411     149.295482
                         23       1    1fy3              5.448411      66.766969
                         23       1    1fy2z             5.448411     149.295482
                         23       1    1fyz2             5.448411     149.295482
                         23       1    1fz3              5.448411      66.766969

                         24       1    1dx2              5.640287      33.977119
                         24       1    1dxy              5.640287      58.850096
                         24       1    1dxz              5.640287      58.850096
                         24       1    1dy2              5.640287      33.977119
                         24       1    1dyz              5.640287      58.850096
                         24       1    1dz2              5.640287      33.977119

                         25       1    1s                9.171527       3.756136

                         26       1    1px              12.325982      32.920544
                         26       1    1py              12.325982      32.920544
                         26       1    1pz              12.325982      32.920544

                         27       1    1dx2             16.935434     232.703555
                         27       1    1dxy             16.935434     403.054381
                         27       1    1dxz             16.935434     403.054381
                         27       1    1dy2             16.935434     232.703555
                         27       1    1dyz             16.935434     403.054381
                         27       1    1dz2             16.935434     232.703555

                         28       1    1s               47.118566      12.817524

                         29       1    1px              49.862265     188.866569
                         29       1    1py              49.862265     188.866569
                         29       1    1pz              49.862265     188.866569

                         30       1    1s              221.309708      40.894080

       Atomic covalent radius [Angstrom]:                                  0.770

       Atomic van der Waals radius [Angstrom]:                             1.700

     The atoms of this atomic kind are PAW atoms (GAPW):
       Hard Gaussian function radius:                                      1.512
       Rho0 radius:                                                        1.512
       Maximum GTO radius used for PAW projector construction:            24.566

     GAPW Soft Basis Set                                            cc-pVQZ_soft

       Number of orbital shell sets:                                           5
       Number of orbital shells:                                              15
       Number of primitive Cartesian functions:                               14
       Number of Cartesian basis functions:                                   70
       Number of spherical basis functions:                                   55
       Norm type:                                                              2

       Normalised Cartesian orbitals:

                        Set   Shell   Orbital            Exponent    Coefficient

                          1       1    1px               2.368000       0.000000
                                                         0.813200       1.100745
                                                         0.289000       0.000000
                                                         0.100700       0.000000
                          1       1    1py               2.368000       0.000000
                                                         0.813200       1.100745
                                                         0.289000       0.000000
                                                         0.100700       0.000000
                          1       1    1pz               2.368000       0.000000
                                                         0.813200       1.100745
                                                         0.289000       0.000000
                                                         0.100700       0.000000

                          1       2    2px               2.368000       0.596637
                                                         0.813200       0.376620
                                                         0.289000       0.140105
                                                         0.100700       0.020217
                          1       2    2py               2.368000       0.596637
                                                         0.813200       0.376620
                                                         0.289000       0.140105
                                                         0.100700       0.020217
                          1       2    2pz               2.368000       0.596637
                                                         0.813200       0.376620
                                                         0.289000       0.140105
                                                         0.100700       0.020217

                          1       3    3px               2.368000       0.000000
                                                         0.813200       0.000000
                                                         0.289000       0.302039
                                                         0.100700       0.000000
                          1       3    3py               2.368000       0.000000
                                                         0.813200       0.000000
                                                         0.289000       0.302039
                                                         0.100700       0.000000
                          1       3    3pz               2.368000       0.000000
                                                         0.813200       0.000000
                                                         0.289000       0.302039
                                                         0.100700       0.000000

                          1       4    4px               2.368000       0.000000
                                                         0.813200       0.000000
                                                         0.289000       0.000000
                                                         0.100700       0.080859
                          1       4    4py               2.368000       0.000000
                                                         0.813200       0.000000
                                                         0.289000       0.000000
                                                         0.100700       0.080859
                          1       4    4pz               2.368000       0.000000
                                                         0.813200       0.000000
                                                         0.289000       0.000000
                                                         0.100700       0.080859

                          2       1    1s                2.530000       0.310322
                                                         0.735500       0.008997
                                                         0.290500      -0.000870
                                                         0.111100       0.000134

                          2       2    2s                2.530000       0.000000
                                                         0.735500       0.566040
                                                         0.290500       0.000000
                                                         0.111100       0.000000

                          2       3    3s                2.530000       0.000000
                                                         0.735500       0.000000
                                                         0.290500       0.282013
                                                         0.111100       0.000000

                          2       4    4s                2.530000      -0.168734
                                                         0.735500       0.154985
                                                         0.290500       0.165404
                                                         0.111100       0.039147

                          2       5    5s                2.530000       0.000000
                                                         0.735500       0.000000
                                                         0.290500       0.000000
                                                         0.111100       0.137150

                          3       1    1dx2              1.848000       4.821009
                                                         0.649000       0.000000
                                                         0.228000       0.000000
                          3       1    1dxy              1.848000       8.350232
                                                         0.649000       0.000000
                                                         0.228000       0.000000
                          3       1    1dxz              1.848000       8.350232
                                                         0.649000       0.000000
                                                         0.228000       0.000000
                          3       1    1dy2              1.848000       4.821009
                                                         0.649000       0.000000
                                                         0.228000       0.000000
                          3       1    1dyz              1.848000       8.350232
                                                         0.649000       0.000000
                                                         0.228000       0.000000
                          3       1    1dz2              1.848000       4.821009
                                                         0.649000       0.000000
                                                         0.228000       0.000000

                          3       2    2dx2              1.848000       0.000000
                                                         0.649000       0.772392
                                                         0.228000       0.000000
                          3       2    2dxy              1.848000       0.000000
                                                         0.649000       1.337822
                                                         0.228000       0.000000
                          3       2    2dxz              1.848000       0.000000
                                                         0.649000       1.337822
                                                         0.228000       0.000000
                          3       2    2dy2              1.848000       0.000000
                                                         0.649000       0.772392
                                                         0.228000       0.000000
                          3       2    2dyz              1.848000       0.000000
                                                         0.649000       1.337822
                                                         0.228000       0.000000
                          3       2    2dz2              1.848000       0.000000
                                                         0.649000       0.772392
                                                         0.228000       0.000000

                          3       3    3dx2              1.848000       0.000000
                                                         0.649000       0.000000
                                                         0.228000       0.123821
                          3       3    3dxy              1.848000       0.000000
                                                         0.649000       0.000000
                                                         0.228000       0.214465
                          3       3    3dxz              1.848000       0.000000
                                                         0.649000       0.000000
                                                         0.228000       0.214465
                          3       3    3dy2              1.848000       0.000000
                                                         0.649000       0.000000
                                                         0.228000       0.123821
                          3       3    3dyz              1.848000       0.000000
                                                         0.649000       0.000000
                                                         0.228000       0.214465
                          3       3    3dz2              1.848000       0.000000
                                                         0.649000       0.000000
                                                         0.228000       0.123821

                          4       1    1fx3              1.419000       3.235302
                                                         0.485000       0.000000
                          4       1    1fx2y             1.419000       7.234355
                                                         0.485000       0.000000
                          4       1    1fx2z             1.419000       7.234355
                                                         0.485000       0.000000
                          4       1    1fxy2             1.419000       7.234355
                                                         0.485000       0.000000
                          4       1    1fxyz             1.419000      12.530271
                                                         0.485000       0.000000
                          4       1    1fxz2             1.419000       7.234355
                                                         0.485000       0.000000
                          4       1    1fy3              1.419000       3.235302
                                                         0.485000       0.000000
                          4       1    1fy2z             1.419000       7.234355
                                                         0.485000       0.000000
                          4       1    1fyz2             1.419000       7.234355
                                                         0.485000       0.000000
                          4       1    1fz3              1.419000       3.235302
                                                         0.485000       0.000000

                          4       2    2fx3              1.419000       0.000000
                                                         0.485000       0.288984
                          4       2    2fx2y             1.419000       0.000000
                                                         0.485000       0.646187
                          4       2    2fx2z             1.419000       0.000000
                                                         0.485000       0.646187
                          4       2    2fxy2             1.419000       0.000000
                                                         0.485000       0.646187
                          4       2    2fxyz             1.419000       0.000000
                                                         0.485000       1.119229
                          4       2    2fxz2             1.419000       0.000000
                                                         0.485000       0.646187
                          4       2    2fy3              1.419000       0.000000
                                                         0.485000       0.288984
                          4       2    2fy2z             1.419000       0.000000
                                                         0.485000       0.646187
                          4       2    2fyz2             1.419000       0.000000
                                                         0.485000       0.646187
                          4       2    2fz3              1.419000       0.000000
                                                         0.485000       0.288984

                          5       1    1gx4              1.011000       1.146835
                          5       1    1gx3y             1.011000       3.034241
                          5       1    1gx3z             1.011000       3.034241
                          5       1    1gx2y2            1.011000       3.917189
                          5       1    1gx2yz            1.011000       6.784770
                          5       1    1gx2z2            1.011000       3.917189
                          5       1    1gxy3             1.011000       3.034241
                          5       1    1gxy2z            1.011000       6.784770
                          5       1    1gxyz2            1.011000       6.784770
                          5       1    1gxz3             1.011000       3.034241
                          5       1    1gy4              1.011000       1.146835
                          5       1    1gy3z             1.011000       3.034241
                          5       1    1gy2z2            1.011000       3.917189
                          5       1    1gyz3             1.011000       3.034241
                          5       1    1gz4              1.011000       1.146835

     AE Potential information for                                            ALL

       Description:                                       All-electron potential
                                          Krack, Parrinello, PCCP 2, 2105 (2000)

       Gaussian exponent of the core charge distribution:               4.109048
       Electronic configuration (s p d ...):                           4   2   0

  2. Atomic kind: H                                     Number of atoms:       9

     Orbital Basis Set                                                   cc-pVQZ

       Number of orbital shell sets:                                           4
       Number of orbital shells:                                              10
       Number of primitive Cartesian functions:                               12
       Number of Cartesian basis functions:                                   35
       Number of spherical basis functions:                                   30
       Norm type:                                                              2

       Normalised Cartesian orbitals:

                        Set   Shell   Orbital            Exponent    Coefficient

                          1       1    1s               82.640000       0.000000
                                                        12.410000       0.000000
                                                         2.824000       0.000000
                                                         0.797700       0.601575
                                                         0.258100       0.000000
                                                         0.089890       0.000000

                          1       2    2s               82.640000       0.000000
                                                        12.410000       0.000000
                                                         2.824000       0.000000
                                                         0.797700       0.000000
                                                         0.258100       0.258078
                                                         0.089890       0.000000

                          1       3    3s               82.640000       0.039186
                                                        12.410000       0.072302
                                                         2.824000       0.117344
                                                         0.797700       0.154530
                                                         0.258100       0.128360
                                                         0.089890       0.034648

                          1       4    4s               82.640000       0.000000
                                                        12.410000       0.000000
                                                         2.824000       0.000000
                                                         0.797700       0.000000
                                                         0.258100       0.000000
                                                         0.089890       0.117002

                          2       1    1px               2.292000       4.019836
                                                         0.838000       0.000000
                                                         0.292000       0.000000
                          2       1    1py               2.292000       4.019836
                                                         0.838000       0.000000
                                                         0.292000       0.000000
                          2       1    1pz               2.292000       4.019836
                                                         0.838000       0.000000
                                                         0.292000       0.000000

                          2       2    2px               2.292000       0.000000
                                                         0.838000       1.142865
                                                         0.292000       0.000000
                          2       2    2py               2.292000       0.000000
                                                         0.838000       1.142865
                                                         0.292000       0.000000
                          2       2    2pz               2.292000       0.000000
                                                         0.838000       1.142865
                                                         0.292000       0.000000

                          2       3    3px               2.292000       0.000000
                                                         0.838000       0.000000
                                                         0.292000       0.305963
                          2       3    3py               2.292000       0.000000
                                                         0.838000       0.000000
                                                         0.292000       0.305963
                          2       3    3pz               2.292000       0.000000
                                                         0.838000       0.000000
                                                         0.292000       0.305963

                          3       1    1dx2              2.062000       5.840024
                                                         0.662000       0.000000
                          3       1    1dxy              2.062000      10.115218
                                                         0.662000       0.000000
                          3       1    1dxz              2.062000      10.115218
                                                         0.662000       0.000000
                          3       1    1dy2              2.062000       5.840024
                                                         0.662000       0.000000
                          3       1    1dyz              2.062000      10.115218
                                                         0.662000       0.000000
                          3       1    1dz2              2.062000       5.840024
                                                         0.662000       0.000000

                          3       2    2dx2              2.062000       0.000000
                                                         0.662000       0.799670
                          3       2    2dxy              2.062000       0.000000
                                                         0.662000       1.385069
                          3       2    2dxz              2.062000       0.000000
                                                         0.662000       1.385069
                          3       2    2dy2              2.062000       0.000000
                                                         0.662000       0.799670
                          3       2    2dyz              2.062000       0.000000
                                                         0.662000       1.385069
                          3       2    2dz2              2.062000       0.000000
                                                         0.662000       0.799670

                          4       1    1fx3              1.397000       3.123535
                          4       1    1fx2y             1.397000       6.984436
                          4       1    1fx2z             1.397000       6.984436
                          4       1    1fxy2             1.397000       6.984436
                          4       1    1fxyz             1.397000      12.097399
                          4       1    1fxz2             1.397000       6.984436
                          4       1    1fy3              1.397000       3.123535
                          4       1    1fy2z             1.397000       6.984436
                          4       1    1fyz2             1.397000       6.984436
                          4       1    1fz3              1.397000       3.123535

     RI Auxiliary Basis Set                                        cc-pVQZ-RIFIT

       Number of orbital shell sets:                                          15
       Number of orbital shells:                                              15
       Number of primitive Cartesian functions:                               15
       Number of Cartesian basis functions:                                   70
       Number of spherical basis functions:                                   55
       Norm type:                                                              2

       Normalised Cartesian orbitals:

                        Set   Shell   Orbital            Exponent    Coefficient

                          1       1    1px               0.224508       0.220283
                          1       1    1py               0.224508       0.220283
                          1       1    1pz               0.224508       0.220283

                          2       1    1s                0.227635       0.234877

                          3       1    1s                0.433111       0.380504

                          4       1    1px               0.516293       0.623822
                          4       1    1py               0.516293       0.623822
                          4       1    1pz               0.516293       0.623822

                          5       1    1dx2              0.527598       0.537577
                          5       1    1dxy              0.527598       0.931110
                          5       1    1dxz              0.527598       0.931110
                          5       1    1dy2              0.527598       0.537577
                          5       1    1dyz              0.527598       0.931110
                          5       1    1dz2              0.527598       0.537577

                          6       1    1fx3              0.671931       0.601776
                          6       1    1fx2y             0.671931       1.345612
                          6       1    1fx2z             0.671931       1.345612
                          6       1    1fxy2             0.671931       1.345612
                          6       1    1fxyz             0.671931       2.330669
                          6       1    1fxz2             0.671931       1.345612
                          6       1    1fy3              0.671931       0.601776
                          6       1    1fy2z             0.671931       1.345612
                          6       1    1fyz2             0.671931       1.345612
                          6       1    1fz3              0.671931       0.601776

                          7       1    1dx2              1.017710       1.697272
                          7       1    1dxy              1.017710       2.939762
                          7       1    1dxz              1.017710       2.939762
                          7       1    1dy2              1.017710       1.697272
                          7       1    1dyz              1.017710       2.939762
                          7       1    1dz2              1.017710       1.697272

                          8       1    1s                1.182483       0.808177

                          9       1    1px               1.228568       1.843695
                          9       1    1py               1.228568       1.843695
                          9       1    1pz               1.228568       1.843695

                         10       1    1fx3              1.896433       6.213178
                         10       1    1fx2y             1.896433      13.893089
                         10       1    1fx2z             1.896433      13.893089
                         10       1    1fxy2             1.896433      13.893089
                         10       1    1fxyz             1.896433      24.063536
                         10       1    1fxz2             1.896433      13.893089
                         10       1    1fy3              1.896433       6.213178
                         10       1    1fy2z             1.896433      13.893089
                         10       1    1fyz2             1.896433      13.893089
                         10       1    1fz3              1.896433       6.213178

                         11       1    1gx4              2.130883       8.911979
                         11       1    1gx3y             2.130883      23.578879
                         11       1    1gx3z             2.130883      23.578879
                         11       1    1gx2y2            2.130883      30.440202
                         11       1    1gx2yz            2.130883      52.723977
                         11       1    1gx2z2            2.130883      30.440202
                         11       1    1gxy3             2.130883      23.578879
                         11       1    1gxy2z            2.130883      52.723977
                         11       1    1gxyz2            2.130883      52.723977
                         11       1    1gxz3             2.130883      23.578879
                         11       1    1gy4              2.130883       8.911979
                         11       1    1gy3z             2.130883      23.578879
                         11       1    1gy2z2            2.130883      30.440202
[...]
 integrate_four_center_bin        13599 11.0   23.889   42.645   23.889   42.645
 create_hermitian_form_of_ABBA        1  8.0    0.000    0.001   39.533   39.555
 mp_sync                            761  9.4   27.308   34.443   27.308   34.443
 diagonalize_C                        1  8.0    0.000    0.002   34.373   34.379
 cp_fm_power                          2  7.5    0.249    0.261   32.467   32.496
 fft_wrap_pw1pw2                   1377  9.9    0.022    0.031   20.418   20.730
 fft_wrap_pw1pw2_250                981 11.1    0.685    0.750   19.325   19.655
 fft3d_ps                          1377 11.9    6.485    6.952   17.538   17.938
 qs_rho_update_rho_low               66  5.0    0.001    0.001   16.504   16.507
 sum_up_and_integrate                66  8.0    0.001    0.001   16.295   16.325
 integrate_v_rspace                  66  9.0    0.002    0.002   16.267   16.308
 pw_poisson_solve                    66  8.0    0.387    0.418   16.205   16.218
 calculate_rho_elec                  66  6.0    0.144    0.154   15.462   15.464
 powell_optimize                4981033 11.0   12.350   12.994   12.350   12.994
 density_rs2pw                       66  7.0    0.004    0.004   11.174   12.297
 mp_alltoall_d11v                  1296  9.5   11.215   12.272   11.215   12.272
 mp_sum_d                         15250  6.9   10.386   12.191   10.386   12.191
 mp_alltoall_z22v                  1377 13.9    9.486   12.058    9.486   12.058
 qs_vxc_create                       66  8.0    0.001    0.001   11.498   11.499
 xc_vxc_pw_create                    65  9.0    0.182    0.210   11.498   11.498
 ps_wavelet_solve                    66  9.0    6.519    9.505   11.015   11.075
 transfer_rs2pw                     331  8.4    0.007    0.012    9.442   10.532
 rs_gather_matrices                  66 10.0    0.007    0.009   10.170   10.457
 grid_integrate_task_list            66 10.0    0.267   10.298    0.267   10.298
 xc_pw_derive                       390 11.0    0.003    0.004    8.768    9.398
 mp_alltoall_d54                     66 10.0    3.604    8.934    3.604    8.934
 prepare_gapw_den                    66  8.0    0.002    0.002    8.850    8.911
 mp_waitany                       16716 11.5    7.784    8.860    7.784    8.860
 grid_collocate_task_list            66  7.0    3.916    8.682    3.916    8.682
 calculate_vxc_atom                  66  8.0    0.064    1.065    8.401    8.401
 calc_pair_dist_radii                 1 10.0    2.665    2.713    8.162    8.366
 transfer_rs2pw_250                 133 10.0    1.089    1.225    5.991    7.786
 gaVxcgb_GC                         260  9.0    0.081    7.164    0.081    7.164
 mp2_ri_gpw_compute_in                1  5.0    0.010    0.016    7.147    7.151
 mp2_ri_gpw_compute_in_loop           1  6.0    0.000    0.000    7.085    7.090
 yz_to_x                            525 13.2    0.467    0.573    5.283    7.013
 xc_pw_divergence                    65 10.0    0.002    0.002    5.939    6.517
 contract_B_L                         4  7.0    0.035    0.042    5.465    6.378
 qs_scf_new_mos                      65  5.0    0.001    0.001    6.065    6.080
 potential_pw2rs                     66 10.0    0.014    0.019    5.828    5.882
 x_to_yz                            588 12.9    0.691    0.795    5.314    5.626
 xc_rho_set_and_dset_create          65 10.0    0.144    0.192    5.245    5.620
 transfer_pw2rs                     331 10.6    0.005    0.007    5.491    5.560
 eigensolver_symm                    66  6.0    0.003    0.003    5.460    5.467
 calculate_rho_atom                 330  9.0    1.638    5.431    1.638    5.432
 mp_sum_l                           984  6.2    4.287    5.352    4.287    5.352
 gspace_mixing                       64  5.0    0.139    0.149    5.039    5.040
 mp_sum_dv                        38946  9.9    4.595    4.921    4.595    4.921
 rpa_num_int_RPA_matrix_operati     100  7.0    0.001    0.003    4.427    4.428
 broyden_mixing                      64  6.0    3.494    3.628    3.612    3.684
 mp2_eri_3c_integrate                 1  7.0    0.014    0.020    1.135    3.563
 integrate_set_3c                 13105  8.0    1.012    3.203    1.122    3.547
 mp_cart_create                     579  9.9    2.590    3.529    2.591    3.529
 dbt_pgrid_create_expert             84 10.8    0.000    0.000    2.566    3.505
 integrate_four_center_load          66 10.0    0.000    0.001    2.538    3.492
 hfx_load_balance                     1 11.0    0.000    0.000    2.538    3.492
 calc_mat_Q                         100  8.0    0.000    0.001    3.447    3.466
 hfx_load_balance_range               1 12.0    0.000    0.000    2.508    3.462
 contract_S_to_Q                    100  9.0    0.001    0.001    3.428    3.445
 integrate_vhg0_rspace               66  8.0    0.250    0.289    3.356    3.374
 put_rho0_on_grid                    66  9.0    0.155    0.219    3.161    3.222
 create_qs_kind_set                   1  2.0    0.000    0.000    3.127    3.128
 read_qs_kind                         5  3.0    1.738    1.779    3.126    3.127
 transfer_pw2rs_250                 133 10.9    0.960    1.071    2.930    3.066
 qs_energies_init_hamiltonians        1  3.0    0.000    0.000    3.046    3.046
 build_core_hamiltonian_matrix        1  4.0    0.000    0.000    3.034    3.034
 overlap_condnum                      1  5.0    0.000    0.001    3.024    3.032
 mp_waitall_1                     69670 12.0    2.413    2.969    2.413    2.969
 arnoldi_conjugate_gradient           7  6.0    0.063    0.075    2.839    2.839
 dbt_total                            8  8.0    0.000    0.000    2.765    2.765
 transfer_rs2pw_90                   66  9.0    0.196    0.250    1.595    2.687
 dbt_contract                         4  9.0    0.001    0.001    2.570    2.576
 mp_sum_dm                         3238  7.6    2.396    2.481    2.396    2.481
 cp_fm_syrk                           3  7.0    2.176    2.394    2.176    2.394
 dbt_tas_multiply                     8 11.5    0.000    0.000    2.282    2.283
 dbt_tas_total                        8 12.5    0.003    0.006    2.282    2.282
 qs_init_subsys                       1  2.0    0.109    1.838    2.254    2.255
 qs_env_setup                         1  3.0    0.000    0.000    2.078    2.195
 qs_env_rebuild_pw_env                2  3.5    0.000    0.000    2.077    2.194
 pw_env_rebuild                       1  5.0    0.001    0.001    2.077    2.193
 pw_grid_setup                        4  6.0    0.000    0.000    1.856    1.973
 pw_grid_setup_internal               4  7.0    0.003    0.004    1.856    1.972
 dbt_tas_dbm                          8 13.5    0.000    0.000    1.854    1.854
 dbcsr_sym_matrix_vector_mult      9247  7.0    0.146    0.157    1.556    1.777
 dbm_multiply                         8 15.5    1.592    1.751    1.592    1.751
 dbt_tas_mm_1N                        6 14.5    0.000    0.000    1.578    1.737
 mp_alltoall_d45                     67 10.0    0.889    1.552    0.889    1.552
 cp_fm_cholesky_invert              101  8.0    1.425    1.506    1.425    1.506
 transfer_pw2rs_30                   66 12.0    0.606    0.669    1.356    1.474
 transfer_rs2pw_30                   66  9.0    0.628    0.671    1.413    1.443
 parser_read_line                369892  4.0    0.124    0.135    1.388    1.417
 create_B                             1  8.0    0.001    0.003    1.360    1.389
 create_A                             1  8.0    0.003    0.006    1.279    1.317
 parser_read_line_low               397  5.0    0.112    0.533    1.264    1.297
 xc_functional_eval                 585 10.9    0.001    0.002    0.862    1.258
 pbe_lda_eval                       585 11.9    0.861    1.256    0.861    1.256
 broadcast_input_information        397  6.0    0.270    0.303    1.152    1.232
 mp_sendrecv_dv                   28380 10.0    1.061    1.112    1.061    1.112
 pw_scatter_p                       720 12.1    0.939    1.081    0.939    1.081
 calculate_rho_atom_coeff            66  6.0    0.036    0.073    1.042    1.042
 mp_isendrecv_dv                  56760 12.0    0.532    1.007    0.532    1.007
 rs_grid_zero                       332 11.2    0.944    0.975    0.944    0.975
 integrate_four_center_getP          66 10.0    0.059    0.062    0.943    0.946
 mp_bcast_dv                       9318  9.0    0.409    0.919    0.409    0.919
 compute_vec_Sigma_x_minus_vxc_       1  4.0    0.000    0.000    0.915    0.915
 integrate_four_center_dist_KS       66 10.0    0.041    0.043    0.886    0.888
 pw_gather_p                        657 11.8    0.725    0.881    0.725    0.881
 cp2k_distribution_to_z_slices       66  9.0    0.304    0.332    0.709    0.867
 cp_fm_cholesky_decompose           102  9.0    0.824    0.866    0.824    0.866
 transfer_pw2rs_90                   66 12.0    0.189    0.229    0.781    0.858
 compute_Erpa_by_freq_int           100  8.0    0.002    0.003    0.850    0.852
 dbcsr_add_d                      13914  7.0    0.013    0.015    0.123    0.839
 dbcsr_add_anytype                13914  8.0    0.016    0.102    0.110    0.825
 fm_general_add_bse                   5 10.2    0.000    0.000    0.735    0.788
 Vh_1c_gg_integrals                  66  8.0    0.018    0.601    0.631    0.782
 fft_wrap_pw1pw2_90                 132 10.5    0.020    0.037    0.666    0.762
 cp_fm_to_fm_submat_general         112 10.1    0.460    0.732    0.460    0.732
 create_integ_mat                     4  6.0    0.004    0.006    0.680    0.715
 dbcsr_rep_row_to_rep_col_vec      9247  8.0    0.048    0.060    0.321    0.708
 array2fm                             4  7.0    0.000    0.000    0.626    0.701
 pw_derive                          588 11.3    0.645    0.692    0.645    0.692
 mp_bcast_am_src                    397  7.0    0.501    0.595    0.542    0.647
 mp_bcast_i_src                    1588  7.0    0.323    0.641    0.323    0.641
 dbcsr_col_vec_to_rep_row          9247  8.0    0.065    0.080    0.479    0.639
 dbt_tas_estimate_result_nze          4 12.0    0.010    0.014    0.606    0.606
 pw_poisson_rebuild                  66  9.0    0.000    0.000    0.561    0.584
 ps_wavelet_create                    1 10.0    0.000    0.000    0.561    0.584
 RS_z_slice_distribution              1 11.0    0.498    0.545    0.561    0.584
 dbcsr_multiply_generic             126  8.1    0.007    0.008    0.506    0.562
 pw_copy                            985 10.6    0.505    0.546    0.505    0.546
 dbcsr_finalize                   15065 10.2    0.013    0.164    0.070    0.501
 dbt_copy                            12 10.1    0.000    0.000    0.435    0.459
 calculate_dm_sparse                 65  6.0    0.001    0.001    0.432    0.458
 cp_dbcsr_plus_fm_fm_t               65  7.0    0.001    0.001    0.431    0.457
 mp_irecv_dm3                      2388 11.5    0.161    0.449    0.161    0.449
 transfer_pw2rs_10                   66 12.0    0.157    0.185    0.419    0.448
 transfer_rs2pw_10                   66  9.0    0.160    0.171    0.436    0.448
 dbcsr_complete_redistribute        238  8.5    0.050    0.057    0.418    0.437
 init_scf_run                         1  3.0    0.000    0.000    0.431    0.432
 copy_dbcsr_to_fm                   104  6.7    0.002    0.002    0.401    0.423
 pw_poisson_set                      67  8.9    0.002    0.002    0.395    0.408
 cp_fm_redistribute_start            71  8.0    0.153    0.273    0.228    0.382
 mp2_main_alloc_hfx                   1  4.0    0.140    0.362    0.140    0.362
 mp_sum_i                            21  9.7    0.224    0.350    0.224    0.350
 restraint_control                    1  2.0    0.000    0.000    0.223    0.349
 abc_contract                     13105  9.0    0.110    0.344    0.110    0.344
 scf_env_initial_rho_setup            1  4.0    0.000    0.000    0.340    0.341
 array2fm_info                        4  8.0    0.299    0.326    0.305    0.330
 mp_isend_dm3                      2388 11.5    0.155    0.329    0.155    0.329
 pw_copy_to_array                   657 11.8    0.266    0.326    0.266    0.326
 multiply_cannon                    126  9.1    0.014    0.016    0.266    0.318
 mp_max_i                           641  2.7    0.149    0.313    0.149    0.313
 pw_integral_ab_c1d_c1d_gs           66  9.0    0.214    0.217    0.281    0.307
 cp_fm_uplo_to_full                 104  8.0    0.148    0.294    0.148    0.294
 multiply_cannon_loop               126 10.1    0.017    0.019    0.233    0.287
 pw_copy_from_array                 720 12.1    0.218    0.286    0.218    0.286
 fft_wrap_pw1pw2_30                 132 10.5    0.004    0.004    0.267    0.277
 dbt_reshape                          8 11.6    0.073    0.088    0.262    0.275
 mp_alltoall_z11v                   264 13.5    0.263    0.273    0.263    0.273
 pw_axpy                            655  9.3    0.236    0.268    0.236    0.268
 dbcsr_merge_all                  14604 10.9    0.018    0.193    0.048    0.255
 dbcsr_iterator_start            108862  8.7    0.121    0.194    0.144    0.254
 calculate_rho0_atom                330  9.0    0.240    0.251    0.240    0.251
 dbcsr_desymmetrize_deep            106  7.6    0.012    0.014    0.239    0.250
 mult_B_with_W                        1  8.0    0.000    0.000    0.203    0.244
 dbcsr_copy                       37675  7.5    0.138    0.152    0.220    0.239
 hybrid_alltoall_any                358 11.0    0.083    0.095    0.220    0.235
 copy_fm_to_dbcsr                   134  8.1    0.001    0.001    0.221    0.231
 mp_isend_dv                      21628 11.9    0.175    0.228    0.175    0.228
 cp_fm_symm                          66  7.0    0.219    0.228    0.219    0.228
 make_m2s                           252  9.1    0.005    0.006    0.199    0.215
 compute_max_radius                   1  6.0    0.207    0.214    0.207    0.214
 array2fm_fill                        4  8.0    0.075    0.092    0.140    0.213
 multiply_cannon_multrec           2576 11.1    0.139    0.196    0.140    0.197
 dbcsr_sym_matrix_vector_mult_l    9247  8.0    0.049    0.164    0.077    0.189
 dbt_split_blocks_generic            20  8.8    0.073    0.080    0.179    0.188
 fm_general_add_bse_1_setup           5 11.2    0.163    0.184    0.163    0.184
 mp_waitall_2                        52 15.7    0.161    0.183    0.161    0.183
 update_ks_atom                      66  8.0    0.031    0.063    0.150    0.183
 fm_general_add_bse_4_buf_from_       1 10.0    0.156    0.183    0.156    0.183
 make_images                        252 10.1    0.032    0.037    0.162    0.177
 fm_general_add_bse_4_buf_from_       1 10.0    0.147    0.173    0.147    0.173
 yz_to_xz                           132 14.0    0.012    0.014    0.163    0.172
 fm_general_add_bse_5_comm_buff       5 11.2    0.000    0.000    0.112    0.171
 communicate_buffer                   5 12.2    0.001    0.001    0.112    0.171
 array2fm_buffer_send                 4  8.0    0.152    0.166    0.152    0.166
 ao_to_mo_and_store_B_mult_gw_1       7  7.0    0.000    0.000    0.119    0.164
 dbm_reserve_blocks                  70 14.1    0.151    0.163    0.151    0.163
 ao_to_mo_and_store_B_mult_bse_       7  7.0    0.000    0.000    0.112    0.161
 dbt_tas_replicate                    8 13.5    0.066    0.091    0.154    0.160
 dbt_communicate_buffer               8 12.6    0.002    0.002    0.150    0.158
 vxc_of_r_new                       520  9.0    0.000    0.024    0.003    0.156
 mp_wait                            104  9.0    0.065    0.156    0.065    0.156
 dbt_remap                            8 10.0    0.002    0.002    0.156    0.156
 dbcsr_iterator_stop             108862  8.7    0.092    0.131    0.111    0.155
 mp_alltoall_i11v                   820  9.4    0.153    0.153    0.153    0.153
 Q_trace_and_add_unit_matrix        100  8.0    0.009    0.011    0.129    0.148
 pw_zero                            392 10.3    0.127    0.148    0.127    0.148
 dbt_tas_reserve_blocks_index        62 13.1    0.004    0.004    0.133    0.145
 mp_sum_iv                          321  9.6    0.104    0.144    0.104    0.144
 fft_wrap_pw1pw2_10                 132 10.5    0.001    0.001    0.137    0.139
 truncate_BSE_matrices                1  8.0    0.000    0.000    0.076    0.133
 dbt_tas_reshape                     10 13.8    0.000    0.000    0.121    0.130
 create_fast_col_vec_access       18494  8.0    0.076    0.085    0.116    0.128
 create_fast_row_vec_access       18494  8.0    0.076    0.083    0.117    0.126
 mp_bcast_dm                       2112  9.0    0.120    0.122    0.120    0.122
 xz_to_yz                           132 11.0    0.008    0.010    0.120    0.122
 rs_scatter_matrices                 66  7.0    0.001    0.002    0.114    0.118
 mp_rank_compare                   1377 12.9    0.112    0.116    0.112    0.116
 ao_to_mo_and_store_B_E_Ex_gw_1       7  7.0    0.041    0.047    0.099    0.116
 cp_fm_create                       345  7.8    0.083    0.113    0.083    0.113
 dbt_split_copyback                   4 10.0    0.076    0.084    0.098    0.109
 dbcsr_create_new                 40118  8.6    0.077    0.083    0.100    0.108
 make_images_data                   252 11.1    0.003    0.004    0.093    0.106
 postprocess_bse                      1  9.0    0.000    0.000    0.097    0.105
 dbt_distribution_new_expert         76 10.1    0.001    0.001    0.083    0.102
 ao_to_mo_and_store_B_E_Ex_bse_       7  7.0    0.043    0.047    0.092    0.099
 dbt_reserve_blocks_index            36 10.8    0.003    0.003    0.089    0.098
 mp_alltoall_i22                    344  9.2    0.079    0.098    0.079    0.098
 mp_alltoall_i                       41 13.9    0.055    0.094    0.055    0.094
 mp_bcast_iv                        511  6.7    0.042    0.091    0.042    0.091
 dbt_reserve_blocks_index_array      28 10.6    0.000    0.000    0.078    0.087
 fm_general_add_bse_6_buffer_to       1 10.0    0.054    0.081    0.054    0.081
 dbcsr_scale_anytype              13915  9.0    0.027    0.029    0.069    0.080
 allocate_matrices_gw                 1  7.0    0.001    0.001    0.046    0.077
 get_vec_sigma_x                      1  8.0    0.000    0.000    0.038    0.074
 fm_general_add_bse_3_alloc_buf       5 11.2    0.043    0.073    0.043    0.073
 dbcsr_work_create                15172 10.2    0.005    0.050    0.008    0.073
 scale_and_distribute               132 10.0    0.065    0.071    0.065    0.071
 dbcsr_work_destroy_all           15172 11.2    0.005    0.052    0.007    0.071
 init_rho_atom                        1  3.0    0.000    0.001    0.056    0.069
 dbt_tas_communicate_buffer          18 15.7    0.003    0.003    0.056    0.069
 pw_grid_sort                         4  8.0    0.042    0.043    0.066    0.068
 scf_post_calculation_gpw             1  3.0    0.000    0.000    0.063    0.064
 write_available_results              1  4.0    0.000    0.000    0.063    0.063
 write_mo_free_results                1  5.0    0.003    0.004    0.063    0.063
 -------------------------------------------------------------------------------

 The number of warnings for this run is : 1
 
 -------------------------------------------------------------------------------
  **** **** ******  **  PROGRAM ENDED AT                 2025-03-30 20:10:05.842
 ***** ** ***  *** **   PROGRAM RAN ON                              i04r01c03s12
 **    ****   ******    PROGRAM RAN BY                                   di38fab
 ***** **    ** ** **   PROGRAM PROCESS ID                               3100494
  **** **  *******  **  PROGRAM STOPPED IN /hppfs/scratch/04/di38fab/07_MOL_non_
                                           aug/05_MOL_non_aug/05_MOL/aUKBqsEOTmq
                                           69kFe5R_nOg/5k_set_final_qzvp/YEBHAQ/
                                           cc-pVQZ/GW+BSE
