 DBCSR| CPU Multiplication driver                                           XSMM (U)
 DBCSR| Multrec recursion limit                                              512 (U)
 DBCSR| Multiplication stack size                                           1000 (D)
 DBCSR| Maximum elements for images                                    UNLIMITED (U)
 DBCSR| Multiplicative factor virtual images                                   1 (U)
 DBCSR| Use multiplication densification                                       T (D)
 DBCSR| Multiplication size stacks                                             3 (U)
 DBCSR| Use memory pool for CPU allocation                                     F (U)
 DBCSR| Number of 3D layers                                               SINGLE (U)
 DBCSR| Use MPI memory allocation                                              F (U)
 DBCSR| Use RMA algorithm                                                      F (U)
 DBCSR| Use Communication thread                                               T (U)
 DBCSR| Communication thread load                                             60 (D)
 DBCSR| MPI: My process id                                                     0
 DBCSR| MPI: Number of processes                                              80
 DBCSR| OMP: Current number of threads                                         8
 DBCSR| OMP: Max number of threads                                             8
 DBCSR| Split modifier for TAS multiplication algorithm                  1.0E+00 (U)


  **** **** ******  **  PROGRAM STARTED AT               2025-06-04 16:51:30.425
 ***** ** ***  *** **   PROGRAM STARTED ON                 n2cn0239.ab2021.local
 **    ****   ******    PROGRAM STARTED BY                              metdyn02
 ***** **    ** ** **   PROGRAM PROCESS ID                                  9108
  **** **  *******  **  PROGRAM STARTED IN /scratch/hpc-prf-metdyn/metdyn02_Remi
                                           /10_MOL/05_MOL/aUKBqsEOTmq69kFe5R_nOg
                                           /5k_set_final_qzvp/YAVTOG/SZVSR/TDDFT
                                           /RILIM

 CP2K| version string:                 CP2K version 2025.1 (Development Version)
 CP2K| source code revision number:                                  git:32ddf85
 CP2K| cp2kflags: omp libint fftw3 libxc libgrpp elpa parallel scalapack mpi_f08
 CP2K|             cosma xsmm plumed2 spglib libvori libbqb libvdwxc hdf5
 CP2K| is freely available from                            https://www.cp2k.org/
 CP2K| Program compiled at                         Mon May 19 11:32:37 CEST 2025
 CP2K| Program compiled on                                              n2login1
 CP2K| Program compiled for                                                local
 CP2K| Data directory path    /opt/software/pc2/EB-SW/software/CP2K/2024.1-foss-
 CP2K| Input file name                                                    GW.inp

 GLOBAL| Force Environment number                                              1
 GLOBAL| Basis set file name            /scratch/hpc-prf-metdyn/metdyn02_Remi/BA
 GLOBAL| Potential file name            /pc2/groups/hpc-prf-metdyn/metdyn02_Remi
 GLOBAL| MM Potential file name                                     MM_POTENTIAL
 GLOBAL| Coordinate file name                                      __STD_INPUT__
 GLOBAL| Method name                                                        CP2K
 GLOBAL| Project name                                                       MoS2
 GLOBAL| Run type                                                         ENERGY
 GLOBAL| FFT library                                                       FFTW3
 GLOBAL| Diagonalization library                                            ELPA
 GLOBAL| Cholesky decomposition library                                ScaLAPACK
 GLOBAL| DGEMM library                                                      BLAS
 GLOBAL| Minimum number of eigenvectors for ELPA usage                        16
 GLOBAL| Orthonormality check for eigenvectors                          DISABLED
 GLOBAL| Matrix multiplication library                                     COSMA
 GLOBAL| All-to-all communication in single precision                          F
 GLOBAL| FFTs using library dependent lengths                                  F
 GLOBAL| Grid backend                                                       AUTO
 GLOBAL| Global print level                                               MEDIUM
 GLOBAL| MPI I/O enabled                                                       T
 GLOBAL| Total number of message passing processes                            80
 GLOBAL| Number of threads for this process                                    8
 GLOBAL| This output is from process                                           0
 GLOBAL| OpenMP stack size per thread (OMP_STACKSIZE)                    default
 GLOBAL| CPU model name                          AMD EPYC 7763 64-Core Processor
 GLOBAL| CPUID                                                              1002

 MEMORY| system memory details [Kb]
 MEMORY|                        rank 0           min           max       average
 MEMORY| MemTotal            263897556     263897504     263897624     263897585
 MEMORY| MemFree             254230132     245225328     255627076     251164420
 MEMORY| Buffers                120100         30128        130384         88668
 MEMORY| Cached                6020400       4705860      13027624       8149445
 MEMORY| Slab                   809820        783440       3004912       1502523
 MEMORY| SReclaimable           159404        154984       1349524        452825
 MEMORY| MemLikelyFree       260530036     258758624     260597700     259855359


 *** Fundamental physical constants (SI units) ***

 *** Literature: B. J. Mohr and B. N. Taylor,
 ***             CODATA recommended values of the fundamental physical
 ***             constants: 2006, Web Version 5.1
 ***             http://physics.nist.gov/constants

 Speed of light in vacuum [m/s]                             2.99792458000000E+08
 Magnetic constant or permeability of vacuum [N/A**2]       1.25663706143592E-06
 Electric constant or permittivity of vacuum [F/m]          8.85418781762039E-12
 Planck constant (h) [J*s]                                  6.62606896000000E-34
 Planck constant (h-bar) [J*s]                              1.05457162825177E-34
 Elementary charge [C]                                      1.60217648700000E-19
 Electron mass [kg]                                         9.10938215000000E-31
 Electron g factor [ ]                                     -2.00231930436220E+00
 Proton mass [kg]                                           1.67262163700000E-27
 Fine-structure constant                                    7.29735253760000E-03
 Rydberg constant [1/m]                                     1.09737315685270E+07
 Avogadro constant [1/mol]                                  6.02214179000000E+23
 Boltzmann constant [J/K]                                   1.38065040000000E-23
 Atomic mass unit [kg]                                      1.66053878200000E-27
 Bohr radius [m]                                            5.29177208590000E-11

 *** Conversion factors ***

 [u] -> [a.u.]                                              1.82288848426455E+03
 [Angstrom] -> [Bohr] = [a.u.]                              1.88972613288564E+00
 [a.u.] = [Bohr] -> [Angstrom]                              5.29177208590000E-01
 [a.u.] -> [s]                                              2.41888432650478E-17
 [a.u.] -> [fs]                                             2.41888432650478E-02
 [a.u.] -> [J]                                              4.35974393937059E-18
 [a.u.] -> [N]                                              8.23872205491840E-08
 [a.u.] -> [K]                                              3.15774647902944E+05
 [a.u.] -> [kJ/mol]                                         2.62549961709828E+03
 [a.u.] -> [kcal/mol]                                       6.27509468713739E+02
 [a.u.] -> [Pa]                                             2.94210107994716E+13
 [a.u.] -> [bar]                                            2.94210107994716E+08
 [a.u.] -> [atm]                                            2.90362800883016E+08
 [a.u.] -> [eV]                                             2.72113838565563E+01
 [a.u.] -> [Hz]                                             6.57968392072181E+15
 [a.u.] -> [1/cm] (wave numbers)                            2.19474631370540E+05
 [a.u./Bohr**2] -> [1/cm]                                   5.14048714338585E+03
 

 CELL_TOP| Volume [angstrom^3]:                                     27000.000000
 CELL_TOP| Vector a [angstrom    30.000     0.000     0.000   |a| =    30.000000
 CELL_TOP| Vector b [angstrom     0.000    30.000     0.000   |b| =    30.000000
 CELL_TOP| Vector c [angstrom     0.000     0.000    30.000   |c| =    30.000000
 CELL_TOP| Angle (b,c), alpha [degree]:                                90.000000
 CELL_TOP| Angle (a,c), beta  [degree]:                                90.000000
 CELL_TOP| Angle (a,b), gamma [degree]:                                90.000000
 CELL_TOP| Numerically orthorhombic:                                         YES
 CELL_TOP| Periodicity                                                      NONE

 GENERATE|  Preliminary Number of Bonds generated:                             0
 GENERATE|  Achieved consistency in connectivity generation.

 CELL| Volume [angstrom^3]:                                         27000.000000
 CELL| Vector a [angstrom]:      30.000     0.000     0.000   |a| =    30.000000
 CELL| Vector b [angstrom]:       0.000    30.000     0.000   |b| =    30.000000
 CELL| Vector c [angstrom]:       0.000     0.000    30.000   |c| =    30.000000
 CELL| Angle (b,c), alpha [degree]:                                    90.000000
 CELL| Angle (a,c), beta  [degree]:                                    90.000000
 CELL| Angle (a,b), gamma [degree]:                                    90.000000
 CELL| Numerically orthorhombic:                                             YES
 CELL| Periodicity                                                          NONE

 CELL_REF| Volume [angstrom^3]:                                     27000.000000
 CELL_REF| Vector a [angstrom    30.000     0.000     0.000   |a| =    30.000000
 CELL_REF| Vector b [angstrom     0.000    30.000     0.000   |b| =    30.000000
 CELL_REF| Vector c [angstrom     0.000     0.000    30.000   |c| =    30.000000
 CELL_REF| Angle (b,c), alpha [degree]:                                90.000000
 CELL_REF| Angle (a,c), beta  [degree]:                                90.000000
 CELL_REF| Angle (a,b), gamma [degree]:                                90.000000
 CELL_REF| Numerically orthorhombic:                                         YES
 CELL_REF| Periodicity                                                      NONE

 *******************************************************************************
 *******************************************************************************
 **                                                                           **
 **     #####                         ##              ##                      **
 **    ##   ##            ##          ##              ##                      **
 **   ##     ##                       ##            ######                    **
 **   ##     ##  ##   ##  ##   #####  ##  ##   ####   ##    #####    #####    **
 **   ##     ##  ##   ##  ##  ##      ## ##   ##      ##   ##   ##  ##   ##   **
 **   ##  ## ##  ##   ##  ##  ##      ####     ###    ##   ######   ######    **
 **    ##  ###   ##   ##  ##  ##      ## ##      ##   ##   ##       ##        **
 **     #######   #####   ##   #####  ##  ##  ####    ##    #####   ##        **
 **           ##                                                    ##        **
 **                                                                           **
 **                                                ... make the atoms dance   **
 **                                                                           **
 **            Copyright (C) by CP2K developers group (2000-2025)             **
 **                      J. Chem. Phys. 152, 194103 (2020)                    **
 **                                                                           **
 *******************************************************************************

 DFT| Spin restricted Kohn-Sham (RKS) calculation                            RKS
 DFT| Multiplicity                                                             1
 DFT| Number of spin states                                                    1
 DFT| Charge                                                                   0
 DFT| Self-interaction correction (SIC)                                       NO
 DFT| Cutoffs: density                                              1.000000E-10
 DFT|          gradient                                             1.000000E-10
 DFT|          tau                                                  1.000000E-10
 DFT|          cutoff_smoothing_range                               0.000000E+00
 DFT| XC density smoothing                                                  NONE
 DFT| XC derivatives                                                          PW

 FUNCTIONAL| PBE:
 FUNCTIONAL| J.P.Perdew, K.Burke, M.Ernzerhof, Phys. Rev. Letter, vol. 77, n 18,
 FUNCTIONAL|  pp. 3865-3868, (1996)sx=0.750sc=1.000{spin unpolarized}           


 QS| Method:                                                                GAPW
 QS| Density plane wave grid type                        NON-SPHERICAL FULLSPACE
 QS| Number of grid levels:                                                    4
 QS| Density cutoff [a.u.]:                                                250.0
 QS| Multi grid cutoff [a.u.]: 1) grid level                               250.0
 QS|                           2) grid level                                83.3
 QS|                           3) grid level                                27.8
 QS|                           4) grid level                                 9.3
 QS| Grid level progression factor:                                          3.0
 QS| Relative density cutoff [a.u.]:                                        50.0
 QS| Interaction thresholds: eps_pgf_orb:                                1.0E-12
 QS|                         eps_filter_matrix:                          0.0E+00
 QS|                         eps_core_charge:                            1.0E-14
 QS|                         eps_rho_gspace:                             1.0E-12
 QS|                         eps_rho_rspace:                             1.0E-12
 QS|                         eps_gvg_rspace:                             1.0E-06
 QS|                         eps_ppl:                                    1.0E-02
 QS|                         eps_ppnl:                                   1.0E-08
 QS| GAPW|      One center basis from orbital basis primitives
 QS| GAPW|                   eps_fit:                                    1.0E-04
 QS| GAPW|                   eps_iso:                                    1.0E-12
 QS| GAPW|                   eps_svd:                                    1.0E-08
 QS| GAPW|                   eps_cpc:                                    1.0E-12
 QS| GAPW|   atom-r-grid: quadrature:                                     GC_LOG
 QS| GAPW|      atom-s-grid:  max l :                                          4
 QS| GAPW|      max_l_rho0 :                                                   2
 QS| GAPW|      At least one kind is NOT PAW, i.e. it has only soft AO 
 QS| GAPW|      The NOT PAW atoms are treated fully GPW


 ATOMIC KIND INFORMATION

  1. Atomic kind: H                                     Number of atoms:       4

     Orbital Basis Set                                      aug-SZV-MOLOPT-ae-SR

       Number of orbital shell sets:                                           1
       Number of orbital shells:                                               4
       Number of primitive Cartesian functions:                                4
       Number of Cartesian basis functions:                                    6
       Number of spherical basis functions:                                    6
       Norm type:                                                              2

       Normalised Cartesian orbitals:

                        Set   Shell   Orbital            Exponent    Coefficient

                          1       1    2s                0.065428       0.000000
                                                         0.168855       0.083474
                                                         0.623914       0.267839
                                                         3.425251       0.276934

                          1       2    3s                0.065428      -0.066952
                                                         0.168855       0.261968
                                                         0.623914       0.081548
                                                         3.425251      -0.022414

                          1       3    4s                0.065428       0.165615
                                                         0.168855      -0.226449
                                                         0.623914      -0.005802
                                                         3.425251       0.005451

                          1       4    3px               0.065428       0.053063
                                                         0.168855      -0.030502
                                                         0.623914       0.062721
                                                         3.425251       0.019012
                          1       4    3py               0.065428       0.053063
                                                         0.168855      -0.030502
                                                         0.623914       0.062721
                                                         3.425251       0.019012
                          1       4    3pz               0.065428       0.053063
                                                         0.168855      -0.030502
                                                         0.623914       0.062721
                                                         3.425251       0.019012

     RI Auxiliary Basis Set             RI_aug-SZV-MOLOPT-ae-SR_N_RI_035_s_p_d_f

       Number of orbital shell sets:                                          15
       Number of orbital shells:                                              15
       Number of primitive Cartesian functions:                               15
       Number of Cartesian basis functions:                                   37
       Number of spherical basis functions:                                   35
       Norm type:                                                              2

       Normalised Cartesian orbitals:

                        Set   Shell   Orbital            Exponent    Coefficient

                          1       1    1s                0.236911       0.242019

                          2       1    8px               0.347892       0.380843
                          2       1    8py               0.347892       0.380843
                          2       1    8pz               0.347892       0.380843

                          3       1    2s                0.423897       0.374417

                          4       1    9px               0.493166       0.589089
                          4       1    9py               0.493166       0.589089
                          4       1    9pz               0.493166       0.589089

                          5       1   14dx2              0.625366       0.723843
                          5       1   14dxy              0.625366       1.253733
                          5       1   14dxz              0.625366       1.253733
                          5       1   14dy2              0.625366       0.723843
                          5       1   14dyz              0.625366       1.253733
                          5       1   14dz2              0.625366       0.723843

                          6       1   10px               0.699103       0.911206
                          6       1   10py               0.699103       0.911206
                          6       1   10pz               0.699103       0.911206

                          7       1    3s                0.758464       0.579244

                          8       1   11px               0.991036       1.409457
                          8       1   11py               0.991036       1.409457
                          8       1   11pz               0.991036       1.409457

                          9       1   15dx2              1.286053       2.556305
                          9       1   15dxy              1.286053       4.427650
                          9       1   15dxz              1.286053       4.427650
                          9       1   15dy2              1.286053       2.556305
                          9       1   15dyz              1.286053       4.427650
                          9       1   15dz2              1.286053       2.556305

                         10       1    4s                1.357095       0.896123

                         11       1   12px               1.404875       2.180155
                         11       1   12py               1.404875       2.180155
                         11       1   12pz               1.404875       2.180155

                         12       1   13px               1.991527       3.372273
                         12       1   13py               1.991527       3.372273
                         12       1   13pz               1.991527       3.372273

                         13       1    5s                2.428204       1.386354

                         14       1    6s                4.344704       2.144768

                         15       1    7s                7.773833       3.318077

       Atomic covalent radius [Angstrom]:                                  0.320

       Atomic van der Waals radius [Angstrom]:                             1.090

     AE Potential information for                                            ALL

       Description:                                       All-electron potential
                                          Krack, Parrinello, PCCP 2, 2105 (2000)

       Gaussian exponent of the core charge distribution:              12.500000
       Electronic configuration (s p d ...):                           1   0   0

  2. Atomic kind: C                                     Number of atoms:       8

     Orbital Basis Set                                      aug-SZV-MOLOPT-ae-SR

       Number of orbital shell sets:                                           2
       Number of orbital shells:                                               6
       Number of primitive Cartesian functions:                                7
       Number of Cartesian basis functions:                                   15
       Number of spherical basis functions:                                   14
       Norm type:                                                              2

       Normalised Cartesian orbitals:

                        Set   Shell   Orbital            Exponent    Coefficient

                          1       1    2s                0.114559       0.000000
                                                         0.222290       0.161536
                                                         0.683483       0.214036
                                                         2.941249      -0.160017

                          1       2    3s                0.114559       0.078076
                                                         0.222290       0.130402
                                                         0.683483      -0.084834
                                                         2.941249       0.041379

                          1       3    3px               0.114559       0.000000
                                                         0.222290       0.085276
                                                         0.683483       0.538304
                                                         2.941249       0.856045
                          1       3    3py               0.114559       0.000000
                                                         0.222290       0.085276
                                                         0.683483       0.538304
                                                         2.941249       0.856045
                          1       3    3pz               0.114559       0.000000
                                                         0.222290       0.085276
                                                         0.683483       0.538304
                                                         2.941249       0.856045

                          1       4    4px               0.114559       0.224492
                                                         0.222290      -0.546182
                                                         0.683483       0.918493
                                                         2.941249      -0.348342
                          1       4    4py               0.114559       0.224492
                                                         0.222290      -0.546182
                                                         0.683483       0.918493
                                                         2.941249      -0.348342
                          1       4    4pz               0.114559       0.224492
                                                         0.222290      -0.546182
                                                         0.683483       0.918493
                                                         2.941249      -0.348342

                          1       5    4dx2              0.114559       0.004023
                                                         0.222290       0.096934
                                                         0.683483       0.116751
                                                         2.941249       0.357653
                          1       5    4dxy              0.114559       0.006968
                                                         0.222290       0.167895
                                                         0.683483       0.202218
                                                         2.941249       0.619473
                          1       5    4dxz              0.114559       0.006968
                                                         0.222290       0.167895
                                                         0.683483       0.202218
                                                         2.941249       0.619473
                          1       5    4dy2              0.114559       0.004023
                                                         0.222290       0.096934
                                                         0.683483       0.116751
                                                         2.941249       0.357653
                          1       5    4dyz              0.114559       0.006968
                                                         0.222290       0.167895
                                                         0.683483       0.202218
                                                         2.941249       0.619473
                          1       5    4dz2              0.114559       0.004023
                                                         0.222290       0.096934
                                                         0.683483       0.116751
                                                         2.941249       0.357653

                          2       1    1s               71.616837       2.707814
                                                        13.045096       2.618880
                                                         3.530512       0.816191

     RI Auxiliary Basis Set             RI_aug-SZV-MOLOPT-ae-SR_N_RI_075_s_p_d_f

       Number of orbital shell sets:                                          19
       Number of orbital shells:                                              19
       Number of primitive Cartesian functions:                               19
       Number of Cartesian basis functions:                                   99
       Number of spherical basis functions:                                   75
       Norm type:                                                              2

       Normalised Cartesian orbitals:

                        Set   Shell   Orbital            Exponent    Coefficient

                          1       1    7px               0.280788       0.291348
                          1       1    7py               0.280788       0.291348
                          1       1    7pz               0.280788       0.291348

                          2       1    1s                0.306994       0.293939

                          3       1   12dx2              0.425885       0.369548
                          3       1   12dxy              0.425885       0.640076
                          3       1   12dxz              0.425885       0.640076
                          3       1   12dy2              0.425885       0.369548
                          3       1   12dyz              0.425885       0.640076
                          3       1   12dz2              0.425885       0.369548

                          4       1   15fx3              0.441457       0.233859
                          4       1   15fx2y             0.441457       0.522924
                          4       1   15fx2z             0.441457       0.522924
                          4       1   15fxy2             0.441457       0.522924
                          4       1   15fxyz             0.441457       0.905731
                          4       1   15fxz2             0.441457       0.522924
                          4       1   15fy3              0.441457       0.233859
                          4       1   15fy2z             0.441457       0.522924
                          4       1   15fyz2             0.441457       0.522924
                          4       1   15fz3              0.441457       0.233859

                          5       1    8px               0.477699       0.566087
                          5       1    8py               0.477699       0.566087
                          5       1    8pz               0.477699       0.566087

                          6       1   16fx3              0.901688       1.166355
                          6       1   16fx2y             0.901688       2.608049
                          6       1   16fx2z             0.901688       2.608049
                          6       1   16fxy2             0.901688       2.608049
                          6       1   16fxyz             0.901688       4.517273
                          6       1   16fxz2             0.901688       2.608049
                          6       1   16fy3              0.901688       1.166355
                          6       1   16fy2z             0.901688       2.608049
                          6       1   16fyz2             0.901688       2.608049
                          6       1   16fz3              0.901688       1.166355

                          7       1   18gx4              0.934410       0.923449
                          7       1   18gx3y             0.934410       2.443217
                          7       1   18gx3z             0.934410       2.443217
                          7       1   18gx2y2            0.934410       3.154180
                          7       1   18gx2yz            0.934410       5.463200
                          7       1   18gx2z2            0.934410       3.154180
                          7       1   18gxy3             0.934410       2.443217
                          7       1   18gxy2z            0.934410       5.463200
                          7       1   18gxyz2            0.934410       5.463200
                          7       1   18gxz3             0.934410       2.443217
                          7       1   18gy4              0.934410       0.923449
                          7       1   18gy3z             0.934410       2.443217
                          7       1   18gy2z2            0.934410       3.154180
                          7       1   18gyz3             0.934410       2.443217
                          7       1   18gz4              0.934410       0.923449

                          8       1    2s                0.946862       0.684109

                          9       1    3s                1.268857       0.852059

                         10       1   13dx2              1.288245       2.563934
                         10       1   13dxy              1.288245       4.440865
                         10       1   13dxz              1.288245       4.440865
                         10       1   13dy2              1.288245       2.563934
                         10       1   13dyz              1.288245       4.440865
                         10       1   13dz2              1.288245       2.563934

                         11       1    9px               1.399800       2.170315
                         11       1    9py               1.399800       2.170315
                         11       1    9pz               1.399800       2.170315

                         12       1   19gx4              1.535589       3.619858
                         12       1   19gx3y             1.535589       9.577244
                         12       1   19gx3z             1.535589       9.577244
                         12       1   19gx2y2            1.535589      12.364169
                         12       1   19gx2yz            1.535589      21.415368
                         12       1   19gx2z2            1.535589      12.364169
                         12       1   19gxy3             1.535589       9.577244
                         12       1   19gxy2z            1.535589      21.415368
                         12       1   19gxyz2            1.535589      21.415368
                         12       1   19gxz3             1.535589       9.577244
                         12       1   19gy4              1.535589       3.619858
                         12       1   19gy3z             1.535589       9.577244
                         12       1   19gy2z2            1.535589      12.364169
                         12       1   19gyz3             1.535589       9.577244
                         12       1   19gz4              1.535589       3.619858

                         13       1   14dx2              2.335379       7.261643
                         13       1   14dxy              2.335379      12.577535
                         13       1   14dxz              2.335379      12.577535
                         13       1   14dy2              2.335379       7.261643
                         13       1   14dyz              2.335379      12.577535
                         13       1   14dz2              2.335379       7.261643

                         14       1   17fx3              2.532110      11.906668
                         14       1   17fx2y             2.532110      26.624119
                         14       1   17fx2z             2.532110      26.624119
                         14       1   17fxy2             2.532110      26.624119
                         14       1   17fxyz             2.532110      46.114327
                         14       1   17fxz2             2.532110      26.624119
                         14       1   17fy3              2.532110      11.906668
                         14       1   17fy2z             2.532110      26.624119
                         14       1   17fyz2             2.532110      26.624119
                         14       1   17fz3              2.532110      11.906668

                         15       1   10px               4.817840      10.174323
                         15       1   10py               4.817840      10.174323
                         15       1   10pz               4.817840      10.174323

                         16       1    4s                4.925178       2.356278

                         17       1   11px              16.202890      46.337296
                         17       1   11py              16.202890      46.337296
                         17       1   11pz              16.202890      46.337296

                         18       1    5s               21.643648       7.151678

                         19       1    6s               78.500404      18.795938

       Atomic covalent radius [Angstrom]:                                  0.770

       Atomic van der Waals radius [Angstrom]:                             1.700

     The atoms of this atomic kind are PAW atoms (GAPW):
       Hard Gaussian function radius:                                      1.512
       Rho0 radius:                                                        1.512
       Maximum GTO radius used for PAW projector construction:            24.566

     GAPW Soft Basis Set                               aug-SZV-MOLOPT-ae-SR_soft

       Number of orbital shell sets:                                           2
       Number of orbital shells:                                               6
       Number of primitive Cartesian functions:                                5
       Number of Cartesian basis functions:                                   15
       Number of spherical basis functions:                                   14
       Norm type:                                                              2

       Normalised Cartesian orbitals:

                        Set   Shell   Orbital            Exponent    Coefficient

                          1       1    2s                0.114559       0.000000
                                                         0.222290       0.161536
                                                         0.683483       0.214036
                                                         2.941249      -0.160017

                          1       2    3s                0.114559       0.078076
                                                         0.222290       0.130402
                                                         0.683483      -0.084834
                                                         2.941249       0.041379

                          1       3    3px               0.114559       0.000000
                                                         0.222290       0.085276
                                                         0.683483       0.538304
                                                         2.941249       0.856045
                          1       3    3py               0.114559       0.000000
                                                         0.222290       0.085276
                                                         0.683483       0.538304
                                                         2.941249       0.856045
                          1       3    3pz               0.114559       0.000000
                                                         0.222290       0.085276
                                                         0.683483       0.538304
                                                         2.941249       0.856045

                          1       4    4px               0.114559       0.224492
                                                         0.222290      -0.546182
                                                         0.683483       0.918493
                                                         2.941249      -0.348342
                          1       4    4py               0.114559       0.224492
                                                         0.222290      -0.546182
                                                         0.683483       0.918493
                                                         2.941249      -0.348342
                          1       4    4pz               0.114559       0.224492
                                                         0.222290      -0.546182
                                                         0.683483       0.918493
                                                         2.941249      -0.348342

                          1       5    4dx2              0.114559       0.004023
                                                         0.222290       0.096934
                                                         0.683483       0.116751
                                                         2.941249       0.357653
                          1       5    4dxy              0.114559       0.006968
                                                         0.222290       0.167895
                                                         0.683483       0.202218
                                                         2.941249       0.619473
                          1       5    4dxz              0.114559       0.006968
                                                         0.222290       0.167895
                                                         0.683483       0.202218
                                                         2.941249       0.619473
                          1       5    4dy2              0.114559       0.004023
                                                         0.222290       0.096934
                                                         0.683483       0.116751
                                                         2.941249       0.357653
                          1       5    4dyz              0.114559       0.006968
                                                         0.222290       0.167895
                                                         0.683483       0.202218
                                                         2.941249       0.619473
                          1       5    4dz2              0.114559       0.004023
                                                         0.222290       0.096934
                                                         0.683483       0.116751
                                                         2.941249       0.357653

                          2       1    1s                3.530512       0.816191

     AE Potential information for                                            ALL

       Description:                                       All-electron potential
                                          Krack, Parrinello, PCCP 2, 2105 (2000)

       Gaussian exponent of the core charge distribution:               4.109048
       Electronic configuration (s p d ...):                           4   2   0

  3. Atomic kind: N                                     Number of atoms:       4

     Orbital Basis Set                                      aug-SZV-MOLOPT-ae-SR

       Number of orbital shell sets:                                           2
       Number of orbital shells:                                               6
       Number of primitive Cartesian functions:                                7
       Number of Cartesian basis functions:                                   15
       Number of spherical basis functions:                                   14
       Norm type:                                                              2

       Normalised Cartesian orbitals:

                        Set   Shell   Orbital            Exponent    Coefficient

                          1       1    1s                0.112012       0.000000
                                                         0.285714       0.194997
                                                         0.878497       0.258372
                                                         3.780456      -0.193164

                          1       2    2s                0.112012       0.083551
                                                         0.285714      -0.189186
                                                         0.878497      -0.469875
                                                         3.780456      -0.002085

                          1       3    2px               0.112012       0.000000
                                                         0.285714       0.116706
                                                         0.878497       0.736704
                                                         3.780456       1.171553
                          1       3    2py               0.112012       0.000000
                                                         0.285714       0.116706
                                                         0.878497       0.736704
                                                         3.780456       1.171553
                          1       3    2pz               0.112012       0.000000
                                                         0.285714       0.116706
                                                         0.878497       0.736704
                                                         3.780456       1.171553

                          1       4    3px               0.112012       0.141957
                                                         0.285714      -0.286713
                                                         0.878497       0.074784
                                                         3.780456       0.008085
                          1       4    3py               0.112012       0.141957
                                                         0.285714      -0.286713
                                                         0.878497       0.074784
                                                         3.780456       0.008085
                          1       4    3pz               0.112012       0.141957
                                                         0.285714      -0.286713
                                                         0.878497       0.074784
                                                         3.780456       0.008085

                          1       5    3dx2              0.112012      -0.000364
                                                         0.285714       0.186009
                                                         0.878497      -0.044751
                                                         3.780456       1.815169
                          1       5    3dxy              0.112012      -0.000630
                                                         0.285714       0.322177
                                                         0.878497      -0.077512
                                                         3.780456       3.143965
                          1       5    3dxz              0.112012      -0.000630
                                                         0.285714       0.322177
                                                         0.878497      -0.077512
                                                         3.780456       3.143965
                          1       5    3dy2              0.112012      -0.000364
                                                         0.285714       0.186009
                                                         0.878497      -0.044751
                                                         3.780456       1.815169
                          1       5    3dyz              0.112012      -0.000630
                                                         0.285714       0.322177
                                                         0.878497      -0.077512
                                                         3.780456       3.143965
                          1       5    3dz2              0.112012      -0.000364
                                                         0.285714       0.186009
                                                         0.878497      -0.044751
                                                         3.780456       1.815169

                          2       1    1s               99.106169       3.454881
                                                        18.052312       3.341410
                                                         4.885660       1.041372

     RI Auxiliary Basis Set             RI_aug-SZV-MOLOPT-ae-SR_N_RI_089_s_p_d_f

       Number of orbital shell sets:                                          21
       Number of orbital shells:                                              21
       Number of primitive Cartesian functions:                               21
       Number of Cartesian basis functions:                                  120
       Number of spherical basis functions:                                   89
       Norm type:                                                              2

       Normalised Cartesian orbitals:

                        Set   Shell   Orbital            Exponent    Coefficient

                          1       1    1s                0.267502       0.265097

                          2       1    7px               0.363169       0.401861
                          2       1    7py               0.363169       0.401861
                          2       1    7pz               0.363169       0.401861

                          3       1   12dx2              0.369517       0.288250
                          3       1   12dxy              0.369517       0.499264
                          3       1   12dxz              0.369517       0.499264
                          3       1   12dy2              0.369517       0.288250
                          3       1   12dyz              0.369517       0.499264
                          3       1   12dz2              0.369517       0.288250

                          4       1    2s                0.470345       0.404783

                          5       1   16fx3              0.516119       0.332385
                          5       1   16fx2y             0.516119       0.743236
                          5       1   16fx2z             0.516119       0.743236
                          5       1   16fxy2             0.516119       0.743236
                          5       1   16fxyz             0.516119       1.287322
                          5       1   16fxz2             0.516119       0.743236
                          5       1   16fy3              0.516119       0.332385
                          5       1   16fy2z             0.516119       0.743236
                          5       1   16fyz2             0.516119       0.743236
                          5       1   16fz3              0.516119       0.332385

                          6       1   13dx2              0.573630       0.622322
                          6       1   13dxy              0.573630       1.077893
                          6       1   13dxz              0.573630       1.077893
                          6       1   13dy2              0.573630       0.622322
                          6       1   13dyz              0.573630       1.077893
                          6       1   13dz2              0.573630       0.622322

                          7       1    8px               0.636008       0.809596
                          7       1    8py               0.636008       0.809596
                          7       1    8pz               0.636008       0.809596

                          8       1   19gx4              0.870859       0.760838
                          8       1   19gx3y             0.870859       2.012988
                          8       1   19gx3z             0.870859       2.012988
                          8       1   19gx2y2            0.870859       2.598756
                          8       1   19gx2yz            0.870859       4.501178
                          8       1   19gx2z2            0.870859       2.598756
                          8       1   19gxy3             0.870859       2.012988
                          8       1   19gxy2z            0.870859       4.501178
                          8       1   19gxyz2            0.870859       4.501178
                          8       1   19gxz3             0.870859       2.012988
                          8       1   19gy4              0.870859       0.760838
                          8       1   19gy3z             0.870859       2.012988
                          8       1   19gy2z2            0.870859       2.598756
                          8       1   19gyz3             0.870859       2.012988
                          8       1   19gz4              0.870859       0.760838

                          9       1   17fx3              1.154647       2.034537
                          9       1   17fx2y             1.154647       4.549363
                          9       1   17fx2z             1.154647       4.549363
                          9       1   17fxy2             1.154647       4.549363
                          9       1   17fxyz             1.154647       7.879729
                          9       1   17fxz2             1.154647       4.549363
                          9       1   17fy3              1.154647       2.034537
                          9       1   17fy2z             1.154647       4.549363
                          9       1   17fyz2             1.154647       4.549363
                          9       1   17fz3              1.154647       2.034537

                         10       1   20gx4              1.247848       2.045878
                         10       1   20gx3y             1.247848       5.412884
                         10       1   20gx3z             1.247848       5.412884
                         10       1   20gx2y2            1.247848       6.988003
                         10       1   20gx2yz            1.247848      12.103577
                         10       1   20gx2z2            1.247848       6.988003
                         10       1   20gxy3             1.247848       5.412884
                         10       1   20gxy2z            1.247848      12.103577
                         10       1   20gxyz2            1.247848      12.103577
                         10       1   20gxz3             1.247848       5.412884
                         10       1   20gy4              1.247848       2.045878
                         10       1   20gy3z             1.247848       5.412884
                         10       1   20gy2z2            1.247848       6.988003
                         10       1   20gyz3             1.247848       5.412884
                         10       1   20gz4              1.247848       2.045878

                         11       1    3s                1.608218       1.017815

                         12       1   21gx4              1.820317       5.778825
                         12       1   21gx3y             1.820317      15.289334
                         12       1   21gx3z             1.820317      15.289334
                         12       1   21gx2y2            1.820317      19.738445
                         12       1   21gx2yz            1.820317      34.187990
                         12       1   21gx2z2            1.820317      19.738445
                         12       1   21gxy3             1.820317      15.289334
                         12       1   21gxy2z            1.820317      34.187990
                         12       1   21gxyz2            1.820317      34.187990
                         12       1   21gxz3             1.820317      15.289334
                         12       1   21gy4              1.820317       5.778825
                         12       1   21gy3z             1.820317      15.289334
                         12       1   21gy2z2            1.820317      19.738445
                         12       1   21gyz3             1.820317      15.289334
                         12       1   21gz4              1.820317       5.778825

                         13       1   14dx2              2.087918       5.969089
                         13       1   14dxy              2.087918      10.338765
                         13       1   14dxz              2.087918      10.338765
                         13       1   14dy2              2.087918       5.969089
                         13       1   14dyz              2.087918      10.338765
                         13       1   14dz2              2.087918       5.969089

                         14       1    9px               2.537910       4.565993
                         14       1    9py               2.537910       4.565993
                         14       1    9pz               2.537910       4.565993

                         15       1   18fx3              3.628403      26.749427
                         15       1   18fx2y             3.628403      59.813538
                         15       1   18fx2z             3.628403      59.813538
                         15       1   18fxy2             3.628403      59.813538
                         15       1   18fxyz             3.628403     103.600086
                         15       1   18fxz2             3.628403      59.813538
                         15       1   18fy3              3.628403      26.749427
                         15       1   18fy2z             3.628403      59.813538
                         15       1   18fyz2             3.628403      59.813538
                         15       1   18fz3              3.628403      26.749427

                         16       1   15dx2              5.366720      31.145839
                         16       1   15dxy              5.366720      53.946175
                         16       1   15dxz              5.366720      53.946175
                         16       1   15dy2              5.366720      31.145839
                         16       1   15dyz              5.366720      53.946175
                         16       1   15dz2              5.366720      31.145839

                         17       1    4s                7.348149       3.180853

                         18       1   10px               7.396841      17.387931
                         18       1   10py               7.396841      17.387931
                         18       1   10pz               7.396841      17.387931

                         19       1   11px              21.508501      66.024142
                         19       1   11py              21.508501      66.024142
                         19       1   11pz              21.508501      66.024142

                         20       1    5s               29.895673       9.112055

                         21       1    6s              109.779167      24.171302

       Atomic covalent radius [Angstrom]:                                  0.750

       Atomic van der Waals radius [Angstrom]:                             1.550

     The atoms of this atomic kind are PAW atoms (GAPW):
       Hard Gaussian function radius:                                      1.512
       Rho0 radius:                                                        1.512
       Maximum GTO radius used for PAW projector construction:            24.566

     GAPW Soft Basis Set                               aug-SZV-MOLOPT-ae-SR_soft

       Number of orbital shell sets:                                           2
       Number of orbital shells:                                               6
       Number of primitive Cartesian functions:                                4
       Number of Cartesian basis functions:                                   15
       Number of spherical basis functions:                                   14
       Norm type:                                                              2

       Normalised Cartesian orbitals:

                        Set   Shell   Orbital            Exponent    Coefficient

                          1       1    1s                0.112012       0.000000
                                                         0.285714       0.194997
                                                         0.878497       0.258372
                                                         3.780456      -0.193164

                          1       2    2s                0.112012       0.083551
                                                         0.285714      -0.189186
                                                         0.878497      -0.469875
                                                         3.780456      -0.002085

                          1       3    2px               0.112012       0.000000
                                                         0.285714       0.116706
                                                         0.878497       0.736704
                                                         3.780456       1.171553
                          1       3    2py               0.112012       0.000000
                                                         0.285714       0.116706
                                                         0.878497       0.736704
                                                         3.780456       1.171553
                          1       3    2pz               0.112012       0.000000
                                                         0.285714       0.116706
                                                         0.878497       0.736704
                                                         3.780456       1.171553

                          1       4    3px               0.112012       0.141957
                                                         0.285714      -0.286713
                                                         0.878497       0.074784
                                                         3.780456       0.008085
                          1       4    3py               0.112012       0.141957
                                                         0.285714      -0.286713
                                                         0.878497       0.074784
                                                         3.780456       0.008085
                          1       4    3pz               0.112012       0.141957
                                                         0.285714      -0.286713
                                                         0.878497       0.074784
                                                         3.780456       0.008085

                          1       5    3dx2              0.112012      -0.000364
                                                         0.285714       0.186009
                                                         0.878497      -0.044751
                                                         3.780456       1.815169
                          1       5    3dxy              0.112012      -0.000630
                                                         0.285714       0.322177
                                                         0.878497      -0.077512
                                                         3.780456       3.143965
                          1       5    3dxz              0.112012      -0.000630
                                                         0.285714       0.322177
                                                         0.878497      -0.077512
                                                         3.780456       3.143965
                          1       5    3dy2              0.112012      -0.000364
                                                         0.285714       0.186009
                                                         0.878497      -0.044751
                                                         3.780456       1.815169
                          1       5    3dyz              0.112012      -0.000630
                                                         0.285714       0.322177
                                                         0.878497      -0.077512
                                                         3.780456       3.143965
                          1       5    3dz2              0.112012      -0.000364
                                                         0.285714       0.186009
                                                         0.878497      -0.044751
                                                         3.780456       1.815169

                          2       1    1s         

     AE Potential information for                                            ALL

       Description:                                       All-electron potential
                                          Krack, Parrinello, PCCP 2, 2105 (2000)

       Gaussian exponent of the core charge distribution:               5.979100
       Electronic configuration (s p d ...):                           4   3   0

  4. Atomic kind: Cl                                    Number of atoms:       2

     Orbital Basis Set                                         aug-SZV-MOLOPT-ae

       Number of orbital shell sets:                                           3
       Number of orbital shells:                                               8
       Number of primitive Cartesian functions:                               19
       Number of Cartesian basis functions:                                   19
       Number of spherical basis functions:                                   18
       Norm type:                                                              2

       Normalised Cartesian orbitals:

                        Set   Shell   Orbital            Exponent    Coefficient

                          1       1    1s                0.077000       0.000000
                                                         0.155732       0.048775
                                                         0.302177       0.213641
                                                         0.610646       0.074372
                                                         1.364210      -0.160589
                                                         3.637791      -0.133295
                                                        13.583529      -0.040055

                          1       2    2s                0.077000       0.113098
                                                         0.155732      -0.001418
                                                         0.302177      -0.032953
                                                         0.610646       0.000940
                                                         1.364210      -0.000650
                                                         3.637791      -0.006480
                                                        13.583529       0.000000

                          1       3    2px               0.077000       0.000000
                                                         0.155732       0.014765
                                                         0.302177       0.156150
                                                         0.610646       0.318942
                                                         1.364210       0.160173
                                                         3.637791      -0.130999
                                                        13.583529      -0.265378
                          1       3    2py               0.077000       0.000000
                                                         0.155732       0.014765
                                                         0.302177       0.156150
                                                         0.610646       0.318942
                                                         1.364210       0.160173
                                                         3.637791      -0.130999
                                                        13.583529      -0.265378
                          1       3    2pz               0.077000       0.000000
                                                         0.155732       0.014765
                                                         0.302177       0.156150
                                                         0.610646       0.318942
                                                         1.364210       0.160173
                                                         3.637791      -0.130999
                                                        13.583529      -0.265378

                          1       4    3px               0.077000       0.044533
                                                         0.155732       0.031887
                                                         0.302177       0.011087
                                                         0.610646      -0.025806
                                                         1.364210       0.119111
                                                         3.637791       0.324938
                                                        13.583529       0.000000
                          1       4    3py               0.077000       0.044533
                                                         0.155732       0.031887
                                                         0.302177       0.011087
                                                         0.610646      -0.025806
                                                         1.364210       0.119111
                                                         3.637791       0.324938
                                                        13.583529       0.000000
                          1       4    3pz               0.077000       0.044533
                                                         0.155732       0.031887
                                                         0.302177       0.011087
                                                         0.610646      -0.025806
                                                         1.364210       0.119111
                                                         3.637791       0.324938
                                                        13.583529       0.000000

                          1       5    3dx2              0.077000       0.003672
                                                         0.155732       0.001893
                                                         0.302177       0.117944
                                                         0.610646       0.097225
                                                         1.364210       0.782555
                                                         3.637791       0.872236
                                                        13.583529       0.000000
                          1       5    3dxy              0.077000       0.006359
                                                         0.155732       0.003279
                                                         0.302177       0.204285
                                                         0.610646       0.168398
                                                         1.364210       1.355425
                                                         3.637791       1.510758
                                                        13.583529       0.000000
                          1       5    3dxz              0.077000       0.006359
                                                         0.155732       0.003279
                                                         0.302177       0.204285
                                                         0.610646       0.168398
                                                         1.364210       1.355425
                                                         3.637791       1.510758
                                                        13.583529       0.000000
                          1       5    3dy2              0.077000       0.003672
                                                         0.155732       0.001893
                                                         0.302177       0.117944
                                                         0.610646       0.097225
                                                         1.364210       0.782555
                                                         3.637791       0.872236
                                                        13.583529       0.000000
                          1       5    3dyz              0.077000       0.006359
                                                         0.155732       0.003279
                                                         0.302177       0.204285
                                                         0.610646       0.168398
                                                         1.364210       1.355425
                                                         3.637791       1.510758
                                                        13.583529       0.000000
                          1       5    3dz2              0.077000       0.003672
                                                         0.155732       0.001893
                                                         0.302177       0.117944
                                                         0.610646       0.097225
                                                         1.364210       0.782555
                                                         3.637791       0.872236
                                                        13.583529       0.000000

                          2       1    1s              403.972966      -0.851102
                                                        79.956793      -0.895515
                                                        24.850512      -0.268003
                                                         9.560888       0.969714
                                                         4.152300       1.233756
                                                         1.903303       0.277989

                          2       2    2px             403.972966       9.705843
                                                        79.956793      12.841416
                                                        24.850512      13.753103
                                                         9.560888      10.017907
                                                         4.152300       3.598052
                                                         1.903303       0.324102
                          2       2    2py             403.972966       9.705843
                                                        79.956793      12.841416
                                                        24.850512      13.753103
                                                         9.560888      10.017907
                                                         4.152300       3.598052
                                                         1.903303       0.324102
                          2       2    2pz             403.972966       9.705843
                                                        79.956793      12.841416
                                                        24.850512      13.753103
                                                         9.560888      10.017907
                                                         4.152300       3.598052
                                                         1.903303       0.324102

                          3       1    1s             6236.545525       4.583362
                                                      1143.463795       6.917755
                                                       319.899964       9.085929
                                                       109.894271       8.964028
                                                        42.675161       4.956187
                                                        17.575988       0.797366

     RI Auxiliary Basis Set             RI_aug-SZV-MOLOPT-ae_N_RI_112_s_p_d_f_g_

       Number of orbital shell sets:                                          24
       Number of orbital shells:                                              24
       Number of primitive Cartesian functions:                               24
       Number of Cartesian basis functions:                                  167
       Number of spherical basis functions:                                  112
       Norm type:                                                              2

       Normalised Cartesian orbitals:

                        Set   Shell   Orbital            Exponent    Coefficient

                          1       1   20gx4              0.279015       0.033259
                          1       1   20gx3y             0.279015       0.087996
                          1       1   20gx3z             0.279015       0.087996
                          1       1   20gx2y2            0.279015       0.113602
                          1       1   20gx2yz            0.279015       0.196764
                          1       1   20gx2z2            0.279015       0.113602
                          1       1   20gxy3             0.279015       0.087996
                          1       1   20gxy2z            0.279015       0.196764
                          1       1   20gxyz2            0.279015       0.196764
                          1       1   20gxz3             0.279015       0.087996
                          1       1   20gy4              0.279015       0.033259
                          1       1   20gy3z             0.279015       0.087996
                          1       1   20gy2z2            0.279015       0.113602
                          1       1   20gyz3             0.279015       0.087996
                          1       1   20gz4              0.279015       0.033259

                          2       1    8px               0.330765       0.357552
                          2       1    8py               0.330765       0.357552
                          2       1    8pz               0.330765       0.357552

                          3       1    1s                0.339703       0.317128

                          4       1   14dx2              0.562661       0.601646
                          4       1   14dxy              0.562661       1.042081
                          4       1   14dxz              0.562661       1.042081
                          4       1   14dy2              0.562661       0.601646
                          4       1   14dyz              0.562661       1.042081
                          4       1   14dz2              0.562661       0.601646

                          5       1   17fx3              0.671109       0.600120
                          5       1   17fx2y             0.671109       1.341909
                          5       1   17fx2z             0.671109       1.341909
                          5       1   17fxy2             0.671109       1.341909
                          5       1   17fxyz             0.671109       2.324255
                          5       1   17fxz2             0.671109       1.341909
                          5       1   17fy3              0.671109       0.600120
                          5       1   17fy2z             0.671109       1.341909
[...]

 R. L. Martin.
 J. Chem. Phys. 118, 4775-4777 (2003).
 Natural transition orbitals.
 https://doi.org/10.1063/1.1558471

 M. Krack, M. Parrinello.
 Phys. Chem. Chem. Phys. 2, 2105-2112 (2000).
 All-electron ab-initio molecular dynamics.
 https://doi.org/10.1039/b001167n

 G. Lippert, J. Hutter, M. Parrinello.
 Theor. Chem. Acc. 103, 124-140 (1999).
 The Gaussian and augmented-plane-wave density functional method for ab initio 
 molecular dynamics simulations.
 https://doi.org/10.1007/s002140050523

 J. P. Perdew, K. Burke, M. Ernzerhof.
 Phys. Rev. Lett. 77, 3865-3868 (1996).
 Generalized gradient approximation made simple.
 https://doi.org/10.1103/PhysRevLett.77.3865


 -------------------------------------------------------------------------------
 -                                                                             -
 -                                T I M I N G                                  -
 -                                                                             -
 -------------------------------------------------------------------------------
 SUBROUTINE                       CALLS  ASD         SELF TIME        TOTAL TIME
                                MAXIMUM       AVERAGE  MAXIMUM  AVERAGE  MAXIMUM
 CP2K                                 1  1.0    0.041    0.068  579.069  579.074
 qs_energies                          1  2.0    0.001    0.006  578.398  578.404
 qs_energies_properties               1  3.0    0.000    0.001  391.573  391.577
 tddfpt                               1  4.0    0.000    0.000  391.573  391.577
 tddfpt_energies                      1  5.0    0.000    0.004  391.331  391.335
 tddfpt_davidson_solver               1  6.0    0.001    0.001  384.273  384.277
 tddfpt_compute_Aop_evects            9  7.0    0.000    0.000  373.622  373.625
 fhxc_kernel                          9  8.0    0.006    0.008  338.368  338.370
 fft_wrap_pw1pw2                   5127 11.1    0.063    0.084  307.850  311.071
 fft3d_ps                          5127 13.1   16.689   19.031  296.778  300.424
 fft_wrap_pw1pw2_250               3609 12.1    2.429    2.574  294.799  298.872
 mp_alltoall_z22v                  5127 15.1  275.637  280.154  275.637  280.154
 scf_env_do_scf                       1  3.0    0.000    0.002  183.733  183.736
 scf_env_do_scf_inner_loop           72  4.0    0.001    0.003  183.733  183.736
 x_to_yz                           2596 13.8    2.377    2.796  142.826  144.777
 yz_to_x                           2531 14.4    1.898    2.288  137.086  139.538
 qs_ks_update_qs_env                 72  5.0    0.000    0.001  132.856  132.959
 rebuild_ks_matrix                   72  6.0    0.000    0.000  132.831  132.925
 qs_ks_build_kohn_sham_matrix        72  7.0    0.010    0.014  132.831  132.924
 pw_poisson_solve                   252  9.4    1.012    1.310  127.561  128.157
 xc_pw_derive                      1515 11.0    0.007    0.009  124.883  125.291
 tddfpt_apply_coulomb               180  9.0    0.002    0.003  108.790  109.371
 tddfpt_apply_xc_analytic           180  9.0    0.183    0.205   98.696   98.884
 qs_rho_update_rho_low              254  7.8    0.003    0.003   92.121   92.233
 calculate_rho_elec                 254  8.8    0.788    0.933   90.316   90.416
 xc_pw_divergence                   252 10.7    0.004    0.005   83.209   83.464
 density_rs2pw                      254  9.8    0.007    0.008   68.259   69.744
 ps_wavelet_solve                   252 10.4   31.435   36.381   59.169   60.175
 xc_calc_2nd_deriv_analytical       540 10.3    0.921    1.142   56.464   56.517
 integrate_v_rspace                 252  9.0    0.006    0.007   51.873   51.960
 qs_vxc_create                       72  8.0    0.001    0.003   51.047   51.050
 xc_vxc_pw_create                    72  9.0    0.287    0.339   51.046   51.050
 potential_pw2rs                    252 10.0    0.037    0.039   49.754   50.169
 mp_alltoall_d11v                 15932 11.6   35.765   39.841   35.765   39.841
 mp_alltoall_d54                    252 11.4   12.300   38.767   12.300   38.767
 tddfpt_apply_hfx                     9  8.0    0.002    0.002   31.247   31.247
 prepare_gapw_den                   253  8.7    0.003    0.003   29.160   29.688
 cp_dbcsr_sm_fm_multiply           1126  8.6    0.013    0.016   28.535   28.633
 transfer_pw2rs                    1261 10.9    0.012    0.017   27.546   28.375
 put_rho0_on_grid                   253  9.7    0.812    1.003   26.602   27.127
 dbcsr_complete_redistribute       3753 10.5    0.099    0.167   24.842   26.027
 transfer_rs2pw                    1271 10.8    0.017    0.025   23.429   24.868
 integrate_four_center              432  9.8    8.572   15.360   23.825   23.869
 xc_rho_set_and_dset_create          73 10.0    0.188    0.201   22.448   22.934
 grid_collocate_task_list           254  9.8   19.346   20.780   19.346   20.780
 mp_waitall_1                    288806 13.6   17.801   20.278   17.801   20.278
 copy_dbcsr_to_fm                  1220  9.3    0.009    0.010   17.381   18.047
 mp_waitany                       39520 12.8   15.217   17.989   15.217   17.989
 mp_alltoall_d45                    253 11.4   15.361   17.562   15.361   17.562
 tddft_hfx_matrix                   360  9.0    0.004    0.005   16.908   16.943
 copy_fm_to_dbcsr                  2531  9.6    0.006    0.007   15.411   16.594
 sum_up_and_integrate                72  8.0    0.001    0.003   15.777   15.825
 mp_sync                           2290 11.5    8.325   14.653    8.325   14.653
 mp_alltoall_i11v                 12480 11.5   13.571   13.576   13.571   13.576
 gspace_mixing                       71  5.0    0.220    0.261   11.919   11.922
 cp2k_distribution_to_z_slices      252 10.4    0.981    1.168   11.085   11.354
 mp_sendrecv_dv                   40132 12.8   10.274   11.228   10.274   11.228
 transfer_pw2rs_250                 505 11.7    2.858    3.228    9.525   10.517
 qs_scf_new_mos                      72  5.0    0.001    0.003   10.425   10.483
 fft_wrap_pw1pw2_90                 506 11.9    0.078    0.085    9.156   10.255
 transfer_rs2pw_30                  254 11.8    1.054    1.172    8.583   10.007
 transfer_rs2pw_250                 509 11.8    2.878    3.119    8.462    9.972
 cp_fm_diag_elpa                    123  7.2    0.000    0.000    9.447    9.705
 transfer_pw2rs_30                  252 12.0    2.371    2.589    7.632    9.241
 dbcsr_desymmetrize_deep           1221 10.3    0.013    0.019    7.860    8.525
 mp_sum_d                          5994  7.6    5.564    8.518    5.564    8.518
 transfer_pw2rs_10                  252 12.0    0.403    0.433    6.994    8.510
 cp_fm_diag_elpa_base               123  8.2    8.153    8.333    8.273    8.462
 eigensolver_symm                    72  6.0    0.005    0.005    7.842    7.898
 integrate_vhg0_rspace              252  9.4    0.161    0.218    7.419    7.471
 hfx_ks_matrix                       72  8.0    0.001    0.002    6.926    6.936
 cp_fm_redistribute_end             123  8.2    0.459    6.912    0.474    6.931
 tddfpt_orthonormalize_psi1_psi      10  6.9    0.010    0.011    6.731    6.738
 dbcsr_multiply_generic            1558 10.3    0.039    0.043    4.920    5.673
 cp_dbcsr_plus_fm_fm_t              252  8.4    0.002    0.002    5.171    5.387
 tddfpt_print_nto_analysis            1  6.0    0.002    0.002    5.203    5.204
 mp_sum_dv                        23971  8.9    4.645    4.912    4.645    4.912
 transfer_rs2pw_10                  254 11.8    0.259    0.272    3.005    4.832
 mp_alltoall_i22                   4974 11.4    3.067    4.783    3.067    4.783
 broyden_mixing                      71  6.0    4.440    4.497    4.586    4.610
 transfer_pw2rs_90                  252 12.0    0.552    0.653    3.383    4.428
 mp_sum_dm                        10745 10.0    3.634    4.351    3.634    4.351
 transfer_rs2pw_90                  254 11.8    0.609    0.711    3.362    4.168
 tddfpt_apply_energy_diff             9  8.0    0.001    0.001    4.008    4.008
 hybrid_alltoall_any               4337 13.5    0.019    0.024    3.318    3.643
 cp_dbcsr_sm_fm_multiply_core      1126  9.6    0.002    0.002    2.963    3.600
 parallel_gemm_fm                  1671  8.3    0.001    0.002    2.796    3.578
 parallel_gemm_fm_cosma            1671  9.3    2.795    3.577    2.795    3.577
 tddfpt_compute_residual_vects        8  7.0    0.000    0.000    3.528    3.532
 gaVxcgb_GC                         252  9.7    0.171    3.466    0.171    3.466
 pw_scatter_p                      2596 12.8    3.189    3.342    3.189    3.342
 update_ks_atom                     252  8.7    0.067    0.104    3.063    3.340
 mp_bcast_dm                       7056  9.7    2.996    3.249    2.996    3.249
 cp_fm_geeig                         20  7.0    0.001    0.001    3.176    3.194
 multiply_cannon                   1558 11.3    0.083    0.117    2.097    3.160
 pw_derive                         2271 11.8    2.983    3.138    2.983    3.138
 calculate_xc_2nd_deriv_atom        180  9.0    0.077    0.282    0.231    2.842
 pw_gather_p                       2531 13.4    2.602    2.767    2.602    2.767
 fft_wrap_pw1pw2_30                 506 11.9    0.015    0.016    2.282    2.590
 integrate_four_center_getP         432 10.8    0.038    0.042    2.565    2.582
 rs_gather_matrices                 252 10.0    0.007    0.043    1.918    2.553
 multiply_cannon_loop              1558 12.3    0.094    0.098    1.445    2.551
 pw_copy                           3425 11.0    2.371    2.476    2.371    2.476
 pw_integral_ab_c1d_c1d_gs          252 10.4    1.105    1.128    1.735    2.454
 qs_energies_init_hamiltonians        1  3.0    0.000    0.006    2.409    2.410
 calculate_rho_atom                 759  9.7    0.919    2.266    0.919    2.266
 build_core_hamiltonian_matrix        1  4.0    0.013    0.261    2.241    2.242
 overlap_condnum                      1  5.0    0.000    0.003    2.224    2.241
 cp_fm_trace_a1b1t1_aa            16500  8.0    0.034    0.040    2.189    2.210
 integrate_four_center_main         432 10.8    0.076    0.833    1.873    2.131
 xc_functional_eval                 577 10.8    0.001    0.002    1.544    1.995
 pbe_lda_eval                       577 11.8    1.544    1.995    1.544    1.995
 integrate_four_center_dist_KS      432 10.8    0.037    0.043    1.951    1.969
 rs_grid_zero                      1264 11.9    1.843    1.953    1.843    1.953
 multiply_cannon_metrocomm3       31160 13.3    0.043    0.044    0.895    1.937
 integrate_four_center_bin        42916 11.8    1.797    1.899    1.797    1.899
 pw_copy_to_array                  2531 13.4    1.490    1.835    1.490    1.835
 pw_poisson_set                     253 10.4    0.004    0.004    1.731    1.829
 calculate_rho_atom_coeff           254  8.8    0.085    0.110    1.803    1.824
 mp_sum_l                          5970 10.6    1.446    1.774    1.446    1.774
 arnoldi_conjugate_gradient           5  6.0    0.007    0.009    1.769    1.769
 mp_cart_sub                       2442 11.3    1.718    1.720    1.718    1.720
 fft_wrap_pw1pw2_10                 506 11.9    0.004    0.005    1.550    1.583
 make_m2s                          3116 11.3    0.027    0.028    1.270    1.572
 mp_max_i                           755  5.0    0.820    1.487    0.820    1.487
 make_images                       3116 12.3    0.071    0.075    1.183    1.476
 calculate_dm_sparse                 72  6.0    0.000    0.000    1.332    1.469
 pw_copy_from_array                2596 12.8    1.203    1.436    1.203    1.436
 Vh_1c_gg_integrals                 252  9.4    0.034    0.317    0.772    1.434
 dbcsr_sym_matrix_vector_mult      2295  7.0    0.017    0.019    1.023    1.379
 mp_isendrecv_dv                 108072 12.3    0.443    1.357    0.443    1.357
 pw_axpy                           2780 10.7    1.249    1.310    1.249    1.310
 rs_scatter_matrices                254  9.8    0.003    0.004    1.046    1.139
 calculate_vxc_atom                  72  8.0    0.030    0.072    1.089    1.099
 make_images_sizes                 3116 13.3    0.002    0.002    0.848    1.082
 pw_zero                           2778 10.6    1.004    1.081    1.004    1.081
 mp_alltoall_i44                   3116 14.3    0.846    1.080    0.846    1.080
 grid_integrate_task_list           252 10.0    0.194    0.985    0.194    0.985
 cp_fm_redistribute_start           123  8.2    0.487    0.510    0.700    0.980
 multiply_cannon_metrocomm1       31160 13.3    0.011    0.012    0.235    0.942
 mp_cart_create                    1981 10.7    0.723    0.911    0.724    0.913
 cp_fm_triangular_invert             20  8.0    0.853    0.859    0.853    0.859
 dbcsr_rep_row_to_rep_col_vec      2295  8.0    0.006    0.007    0.405    0.833
 powell_optimize                 505745 11.0    0.727    0.770    0.727    0.770
 mp_isend_dv                      91594 13.8    0.337    0.768    0.337    0.768
 dbcsr_col_vec_to_rep_row          2295  8.0    0.008    0.008    0.404    0.730
 calc_screening_functions             1 10.0    0.255    0.282    0.674    0.700
 mp_allgather_i34                  1558 12.3    0.505    0.693    0.505    0.693
 tddfpt_construct_ground_state_       1  6.0    0.000    0.000    0.643    0.647
 make_images_data                  3116 13.3    0.019    0.025    0.162    0.635
 init_scf_run                         1  3.0    0.000    0.002    0.623    0.623
 cp_fm_cholesky_decompose            20  8.0    0.557    0.574    0.557    0.574
 calc_pair_dist_radii                 1 10.0    0.167    0.171    0.475    0.518
 mp_isend_dm3                      9120 12.8    0.107    0.500    0.107    0.500
 scf_env_initial_rho_setup            1  4.0    0.000    0.001    0.482    0.491
 multiply_cannon_metrocomm4       29602 13.3    0.046    0.051    0.136    0.481
 mp_bcast_dv                       2369  9.0    0.172    0.477    0.172    0.477
 cp_fm_triangular_multiply           60  8.0    0.440    0.448    0.440    0.448
 prepare_dr1dr                      540 11.3    0.403    0.447    0.403    0.447
 tddfpt_is_nonorthogonal_psi1_p       8  7.0    0.000    0.000    0.444    0.444
 pw_poisson_rebuild                 252 10.4    0.000    0.000    0.391    0.414
 ps_wavelet_create                    1 10.0    0.000    0.000    0.391    0.414
 RS_z_slice_distribution              1 11.0    0.249    0.285    0.391    0.414
 tddfpt_orthogonalize_psi1_psi0      10  6.9    0.000    0.000    0.325    0.337
 mp_max_d                           234  8.3    0.202    0.330    0.202    0.330
 create_kernel_env                    1  6.0    0.000    0.000    0.293    0.308
 xc_prep_2nd_deriv                    1  7.0    0.000    0.000    0.293    0.308
 tddfpt_compute_ritz_vects            9  7.0    0.002    0.002    0.303    0.304
 scale_and_distribute               504 11.4    0.215    0.295    0.215    0.295
 dbcsr_gershgorin_norm                1  6.0    0.000    0.002    0.274    0.291
 cp_fm_symm                          72  7.0    0.257    0.286    0.257    0.286
 cp_fm_maxabsval                    160  8.0    0.000    0.000    0.132    0.260
 qs_init_subsys                       1  2.0    0.004    0.036    0.240    0.241
 qs_env_setup                         1  3.0    0.000    0.002    0.232    0.237
 qs_env_rebuild_pw_env                2  3.5    0.000    0.000    0.231    0.236
 pw_env_rebuild                       1  5.0    0.001    0.007    0.231    0.236
 calculate_rho0_atom               1012  9.7    0.228    0.236    0.228    0.236
 dbcsr_finalize                   11371 11.4    0.037    0.053    0.170    0.225
 tddfpt_dipole_operator               1  5.0    0.000    0.002    0.217    0.218
 pw_grid_setup                        4  6.0    0.000    0.001    0.209    0.215
 pw_grid_setup_internal               4  7.0    0.002    0.003    0.209    0.215
 create_qs_kind_set                   1  2.0    0.000    0.001    0.186    0.190
 read_qs_kind                         4  3.0    0.059    0.097    0.186    0.190
 cp_fm_write_unformatted             24  7.0    0.163    0.165    0.163    0.165
 qs_env_update_s_mstruct              1  4.0    0.000    0.002    0.162    0.164
 mp_rank_compare                   5127 14.1    0.151    0.162    0.151    0.162
 mp_sum_b                           864 10.7    0.135    0.148    0.135    0.148
 calculate_rho_core                   1  5.0    0.004    0.010    0.145    0.148
 mp_sum_iv                          628  7.5    0.134    0.147    0.134    0.147
 cp_fm_power                          1  6.0    0.000    0.001    0.144    0.145
 dbcsr_merge_all                   9241 12.4    0.066    0.114    0.096    0.143
 pw_scale                           648  9.5    0.112    0.139    0.112    0.139
 cp_fm_uplo_to_full                 124  9.2    0.101    0.134    0.101    0.134
 parser_read_line                 25503  4.0    0.004    0.006    0.128    0.134
 parser_read_line_low                38  5.0    0.002    0.027    0.124    0.130
 broadcast_input_information         38  6.0    0.006    0.007    0.122    0.128
 dbcsr_add_d                       3497  7.0    0.002    0.002    0.021    0.122
 multiply_cannon_multrec          31160 13.3    0.028    0.115    0.032    0.121
 dbcsr_add_anytype                 3497  8.0    0.003    0.016    0.020    0.120
 tddfpt_print_excitation_analys       1  6.0    0.000    0.002    0.118    0.119
 tddfpt_write_restart                 1  6.0    0.000    0.035    0.117    0.118
 dbcsr_create_new                 45190 11.6    0.077    0.086    0.107    0.117
 pw_grid_sort                         4  8.0    0.082    0.085    0.111    0.115
 mp_bcast_i_src                     152  7.0    0.094    0.108    0.094    0.108
 self_consistency_check              72  5.0    0.000    0.000    0.070    0.105
 cp_sm_mix                           72  6.0    0.000    0.000    0.070    0.105
 dbcsr_dot_sd                       432 10.8    0.002    0.002    0.089    0.102
 integrate_four_center_load         432 10.8    0.001    0.002    0.078    0.086
 hfx_load_balance                     1 11.0    0.000    0.002    0.077    0.086
 dbcsr_iterator_start             53838 10.5    0.050    0.064    0.061    0.081
 xc_2nd_deriv_of_r                  360 10.0    0.003    0.015    0.014    0.081
 dbcsr_work_create                19810 12.5    0.036    0.053    0.055    0.080
 mp_comm_split                       74  9.0    0.064    0.079    0.065    0.079
 mp_irecv_dv                      90514 13.8    0.045    0.075    0.045    0.075
 mp_bcast_b_src                     195  8.0    0.048    0.074    0.048    0.074
 mp_irecv_dm3                      9120 12.8    0.019    0.068    0.019    0.068
 dbcsr_special_finalize            9348 13.3    0.015    0.016    0.050    0.068
 offload_free_buffer                260 10.2    0.043    0.065    0.043    0.065
 copy_fm_to_dbcsr_bc               2531 10.6    0.015    0.017    0.057    0.062
 multiply_cannon_metrocomm2       23370 13.3    0.033    0.037    0.053    0.059
 dbcsr_data_new                  168819 12.6    0.049    0.059    0.049    0.059
 -------------------------------------------------------------------------------

 The number of warnings for this run is : 1
 
 -------------------------------------------------------------------------------
  **** **** ******  **  PROGRAM ENDED AT                 2025-06-04 17:01:12.247
 ***** ** ***  *** **   PROGRAM RAN ON                     n2cn0239.ab2021.local
 **    ****   ******    PROGRAM RAN BY                                  metdyn02
 ***** **    ** ** **   PROGRAM PROCESS ID                                  9108
  **** **  *******  **  PROGRAM STOPPED IN /scratch/hpc-prf-metdyn/metdyn02_Remi
                                           /10_MOL/05_MOL/aUKBqsEOTmq69kFe5R_nOg
                                           /5k_set_final_qzvp/YAVTOG/SZVSR/TDDFT
                                           /RILIM
