 DBCSR| CPU Multiplication driver                                           XSMM (U)
 DBCSR| Multrec recursion limit                                              512 (U)
 DBCSR| Multiplication stack size                                           1000 (D)
 DBCSR| Maximum elements for images                                    UNLIMITED (U)
 DBCSR| Multiplicative factor virtual images                                   1 (U)
 DBCSR| Use multiplication densification                                       T (D)
 DBCSR| Multiplication size stacks                                             3 (U)
 DBCSR| Use memory pool for CPU allocation                                     F (U)
 DBCSR| Number of 3D layers                                               SINGLE (U)
 DBCSR| Use MPI memory allocation                                              F (U)
 DBCSR| Use RMA algorithm                                                      F (U)
 DBCSR| Use Communication thread                                               T (U)
 DBCSR| Communication thread load                                             75 (D)
 DBCSR| MPI: My process id                                                     0
 DBCSR| MPI: Number of processes                                              16
 DBCSR| OMP: Current number of threads                                         4
 DBCSR| OMP: Max number of threads                                             4
 DBCSR| Split modifier for TAS multiplication algorithm                  1.0E+00 (U)


  **** **** ******  **  PROGRAM STARTED AT               2025-07-01 17:49:01.428
 ***** ** ***  *** **   PROGRAM STARTED ON                              n2cn0441
 **    ****   ******    PROGRAM STARTED BY                              metdyn02
 ***** **    ** ** **   PROGRAM PROCESS ID                               1207225
  **** **  *******  **  PROGRAM STARTED IN /scratch/hpc-prf-metdyn/metdyn02_Remi
                                           /10_MOL/05_MOL/W4-11+ALK/mgs/mini-SZV
                                           /TDDFT/1e-4

 CP2K| version string:                 CP2K version 2025.1 (Development Version)
 CP2K| source code revision number:                                  git:400017f
 CP2K| cp2kflags: omp libint fftw3 libxc libgrpp elpa parallel scalapack mpi_f08
 CP2K|             cosma xsmm plumed2 spglib libvori libbqb libvdwxc hdf5
 CP2K| is freely available from                            https://www.cp2k.org/
 CP2K| Program compiled at                         Thu Jun 26 12:02:16 CEST 2025
 CP2K| Program compiled on                                              n2login1
 CP2K| Program compiled for                                                local
 CP2K| Data directory path    /opt/software/pc2/EB-SW/software/CP2K/2024.1-foss-
 CP2K| Input file name                                                    GW.inp

 GLOBAL| Force Environment number                                              1
 GLOBAL| Basis set file name            /scratch/hpc-prf-metdyn/metdyn02_Remi/BA
 GLOBAL| Potential file name            /pc2/groups/hpc-prf-metdyn/metdyn02_Remi
 GLOBAL| MM Potential file name                                     MM_POTENTIAL
 GLOBAL| Coordinate file name                                      __STD_INPUT__
 GLOBAL| Method name                                                        CP2K
 GLOBAL| Project name                                                       MoS2
 GLOBAL| Run type                                                         ENERGY
 GLOBAL| FFT library                                                       FFTW3
 GLOBAL| Diagonalization library                                            ELPA
 GLOBAL| Cholesky decomposition library                                ScaLAPACK
 GLOBAL| DGEMM library                                                      BLAS
 GLOBAL| Minimum number of eigenvectors for ELPA usage                        16
 GLOBAL| Orthonormality check for eigenvectors                          DISABLED
 GLOBAL| Matrix multiplication library                                     COSMA
 GLOBAL| All-to-all communication in single precision                          F
 GLOBAL| FFTs using library dependent lengths                                  F
 GLOBAL| Grid backend                                                       AUTO
 GLOBAL| Global print level                                               MEDIUM
 GLOBAL| MPI I/O enabled                                                       T
 GLOBAL| Total number of message passing processes                            16
 GLOBAL| Number of threads for this process                                    4
 GLOBAL| This output is from process                                           0
 GLOBAL| OpenMP stack size per thread (OMP_STACKSIZE)                    default
 GLOBAL| CPU model name                          AMD EPYC 7763 64-Core Processor
 GLOBAL| CPUID                                                              1002

 MEMORY| system memory details [Kb]
 MEMORY|                        rank 0           min           max       average
 MEMORY| MemTotal            263897628     263897604     263897628     263897616
 MEMORY| MemFree             249079644     247502984     249079644     248291314
 MEMORY| Buffers                124952         39140        124952         82046
 MEMORY| Cached                8313180       8313180       9978164       9145672
 MEMORY| Slab                  1767000       1767000       1816060       1791530
 MEMORY| SReclaimable           504932        447724        504932        476328
 MEMORY| MemLikelyFree       258022708     257968012     258022708     257995360


 *** Fundamental physical constants (SI units) ***

 *** Literature: B. J. Mohr and B. N. Taylor,
 ***             CODATA recommended values of the fundamental physical
 ***             constants: 2006, Web Version 5.1
 ***             http://physics.nist.gov/constants

 Speed of light in vacuum [m/s]                             2.99792458000000E+08
 Magnetic constant or permeability of vacuum [N/A**2]       1.25663706143592E-06
 Electric constant or permittivity of vacuum [F/m]          8.85418781762039E-12
 Planck constant (h) [J*s]                                  6.62606896000000E-34
 Planck constant (h-bar) [J*s]                              1.05457162825177E-34
 Elementary charge [C]                                      1.60217648700000E-19
 Electron mass [kg]                                         9.10938215000000E-31
 Electron g factor [ ]                                     -2.00231930436220E+00
 Proton mass [kg]                                           1.67262163700000E-27
 Fine-structure constant                                    7.29735253760000E-03
 Rydberg constant [1/m]                                     1.09737315685270E+07
 Avogadro constant [1/mol]                                  6.02214179000000E+23
 Boltzmann constant [J/K]                                   1.38065040000000E-23
 Atomic mass unit [kg]                                      1.66053878200000E-27
 Bohr radius [m]                                            5.29177208590000E-11

 *** Conversion factors ***

 [u] -> [a.u.]                                              1.82288848426455E+03
 [Angstrom] -> [Bohr] = [a.u.]                              1.88972613288564E+00
 [a.u.] = [Bohr] -> [Angstrom]                              5.29177208590000E-01
 [a.u.] -> [s]                                              2.41888432650478E-17
 [a.u.] -> [fs]                                             2.41888432650478E-02
 [a.u.] -> [J]                                              4.35974393937059E-18
 [a.u.] -> [N]                                              8.23872205491840E-08
 [a.u.] -> [K]                                              3.15774647902944E+05
 [a.u.] -> [kJ/mol]                                         2.62549961709828E+03
 [a.u.] -> [kcal/mol]                                       6.27509468713739E+02
 [a.u.] -> [Pa]                                             2.94210107994716E+13
 [a.u.] -> [bar]                                            2.94210107994716E+08
 [a.u.] -> [atm]                                            2.90362800883016E+08
 [a.u.] -> [eV]                                             2.72113838565563E+01
 [a.u.] -> [Hz]                                             6.57968392072181E+15
 [a.u.] -> [1/cm] (wave numbers)                            2.19474631370540E+05
 [a.u./Bohr**2] -> [1/cm]                                   5.14048714338585E+03
 

 CELL_TOP| Volume [angstrom^3]:                                     27000.000000
 CELL_TOP| Vector a [angstrom    30.000     0.000     0.000   |a| =    30.000000
 CELL_TOP| Vector b [angstrom     0.000    30.000     0.000   |b| =    30.000000
 CELL_TOP| Vector c [angstrom     0.000     0.000    30.000   |c| =    30.000000
 CELL_TOP| Angle (b,c), alpha [degree]:                                90.000000
 CELL_TOP| Angle (a,c), beta  [degree]:                                90.000000
 CELL_TOP| Angle (a,b), gamma [degree]:                                90.000000
 CELL_TOP| Numerically orthorhombic:                                         YES
 CELL_TOP| Periodicity                                                      NONE

 GENERATE|  Preliminary Number of Bonds generated:                             0
 GENERATE|  Achieved consistency in connectivity generation.

 CELL| Volume [angstrom^3]:                                         27000.000000
 CELL| Vector a [angstrom]:      30.000     0.000     0.000   |a| =    30.000000
 CELL| Vector b [angstrom]:       0.000    30.000     0.000   |b| =    30.000000
 CELL| Vector c [angstrom]:       0.000     0.000    30.000   |c| =    30.000000
 CELL| Angle (b,c), alpha [degree]:                                    90.000000
 CELL| Angle (a,c), beta  [degree]:                                    90.000000
 CELL| Angle (a,b), gamma [degree]:                                    90.000000
 CELL| Numerically orthorhombic:                                             YES
 CELL| Periodicity                                                          NONE

 CELL_REF| Volume [angstrom^3]:                                     27000.000000
 CELL_REF| Vector a [angstrom    30.000     0.000     0.000   |a| =    30.000000
 CELL_REF| Vector b [angstrom     0.000    30.000     0.000   |b| =    30.000000
 CELL_REF| Vector c [angstrom     0.000     0.000    30.000   |c| =    30.000000
 CELL_REF| Angle (b,c), alpha [degree]:                                90.000000
 CELL_REF| Angle (a,c), beta  [degree]:                                90.000000
 CELL_REF| Angle (a,b), gamma [degree]:                                90.000000
 CELL_REF| Numerically orthorhombic:                                         YES
 CELL_REF| Periodicity                                                      NONE

 *******************************************************************************
 *******************************************************************************
 **                                                                           **
 **     #####                         ##              ##                      **
 **    ##   ##            ##          ##              ##                      **
 **   ##     ##                       ##            ######                    **
 **   ##     ##  ##   ##  ##   #####  ##  ##   ####   ##    #####    #####    **
 **   ##     ##  ##   ##  ##  ##      ## ##   ##      ##   ##   ##  ##   ##   **
 **   ##  ## ##  ##   ##  ##  ##      ####     ###    ##   ######   ######    **
 **    ##  ###   ##   ##  ##  ##      ## ##      ##   ##   ##       ##        **
 **     #######   #####   ##   #####  ##  ##  ####    ##    #####   ##        **
 **           ##                                                    ##        **
 **                                                                           **
 **                                                ... make the atoms dance   **
 **                                                                           **
 **            Copyright (C) by CP2K developers group (2000-2025)             **
 **                      J. Chem. Phys. 152, 194103 (2020)                    **
 **                                                                           **
 *******************************************************************************

 DFT| Spin restricted Kohn-Sham (RKS) calculation                            RKS
 DFT| Multiplicity                                                             1
 DFT| Number of spin states                                                    1
 DFT| Charge                                                                   0
 DFT| Self-interaction correction (SIC)                                       NO
 DFT| Cutoffs: density                                              1.000000E-10
 DFT|          gradient                                             1.000000E-10
 DFT|          tau                                                  1.000000E-10
 DFT|          cutoff_smoothing_range                               0.000000E+00
 DFT| XC density smoothing                                                  NONE
 DFT| XC derivatives                                                          PW

 FUNCTIONAL| PBE:
 FUNCTIONAL| J.P.Perdew, K.Burke, M.Ernzerhof, Phys. Rev. Letter, vol. 77, n 18,
 FUNCTIONAL|  pp. 3865-3868, (1996)sx=0.750sc=1.000{spin unpolarized}           


 QS| Method:                                                                GAPW
 QS| Density plane wave grid type                        NON-SPHERICAL FULLSPACE
 QS| Number of grid levels:                                                    4
 QS| Density cutoff [a.u.]:                                                250.0
 QS| Multi grid cutoff [a.u.]: 1) grid level                               250.0
 QS|                           2) grid level                                83.3
 QS|                           3) grid level                                27.8
 QS|                           4) grid level                                 9.3
 QS| Grid level progression factor:                                          3.0
 QS| Relative density cutoff [a.u.]:                                        50.0
 QS| Interaction thresholds: eps_pgf_orb:                                1.0E-12
 QS|                         eps_filter_matrix:                          0.0E+00
 QS|                         eps_core_charge:                            1.0E-14
 QS|                         eps_rho_gspace:                             1.0E-12
 QS|                         eps_rho_rspace:                             1.0E-12
 QS|                         eps_gvg_rspace:                             1.0E-06
 QS|                         eps_ppl:                                    1.0E-02
 QS|                         eps_ppnl:                                   1.0E-08
 QS| GAPW|      One center basis from orbital basis primitives
 QS| GAPW|                   eps_fit:                                    1.0E-04
 QS| GAPW|                   eps_iso:                                    1.0E-12
 QS| GAPW|                   eps_svd:                                    1.0E-08
 QS| GAPW|                   eps_cpc:                                    1.0E-12
 QS| GAPW|   atom-r-grid: quadrature:                                     GC_LOG
 QS| GAPW|      atom-s-grid:  max l :                                          2
 QS| GAPW|      max_l_rho0 :                                                   2


 ATOMIC KIND INFORMATION

  1. Atomic kind: mg                                    Number of atoms:       1

     Orbital Basis Set                                    aug-SZV-MOLOPT-ae-mini

       Number of orbital shell sets:                                           3
       Number of orbital shells:                                               7
       Number of primitive Cartesian functions:                               10
       Number of Cartesian basis functions:                                   13
       Number of spherical basis functions:                                   13
       Norm type:                                                              2

       Normalised Cartesian orbitals:

                        Set   Shell   Orbital            Exponent    Coefficient

                          1       1    1s                1.395448      -0.200964
                                                         0.389327       0.079246
                                                         0.152380       0.156510
                                                         0.050000       0.000000

                          1       2    2s                1.395448       0.000000
                                                         0.389327      -0.018019
                                                         0.152380       0.083942
                                                         0.050000      -0.100133

                          1       3    2px               1.395448       0.022890
                                                         0.389327       0.260899
                                                         0.152380       0.062696
                                                         0.050000       0.000000
                          1       3    2py               1.395448       0.022890
                                                         0.389327       0.260899
                                                         0.152380       0.062696
                                                         0.050000       0.000000
                          1       3    2pz               1.395448       0.022890
                                                         0.389327       0.260899
                                                         0.152380       0.062696
                                                         0.050000       0.000000

                          1       4    3px               1.395448       0.000000
                                                         0.389327       0.065530
                                                         0.152380       0.049338
                                                         0.050000       0.021015
                          1       4    3py               1.395448       0.000000
                                                         0.389327       0.065530
                                                         0.152380       0.049338
                                                         0.050000       0.021015
                          1       4    3pz               1.395448       0.000000
                                                         0.389327       0.065530
                                                         0.152380       0.049338
                                                         0.050000       0.021015

                          2       1    1s               15.121824      -0.546349
                                                         3.513987       0.730788
                                                         1.142857       0.551536

                          2       2    2px              15.121824       6.627292
                                                         3.513987       4.167429
                                                         1.142857       0.660189
                          2       2    2py              15.121824       6.627292
                                                         3.513987       4.167429
                                                         1.142857       0.660189
                          2       2    2pz              15.121824       6.627292
                                                         3.513987       4.167429
                                                         1.142857       0.660189

                          3       1    1s              299.237410       7.913515
                                                        54.506460       7.653603
                                                        14.751570       2.385296

     RI Auxiliary Basis Set             RI_aug-SZV-MOLOPT-ae-mini_N_RI_034_s_p_d

       Number of orbital shell sets:                                          14
       Number of orbital shells:                                              14
       Number of primitive Cartesian functions:                               14
       Number of Cartesian basis functions:                                   37
       Number of spherical basis functions:                                   34
       Norm type:                                                              2

       Normalised Cartesian orbitals:

                        Set   Shell   Orbital            Exponent    Coefficient

                          1       1    1s                0.094938       0.121896

                          2       1    8px               0.105801       0.086011
                          2       1    8py               0.105801       0.086011
                          2       1    8pz               0.105801       0.086011

                          3       1   12dx2              0.243214       0.138641
                          3       1   12dxy              0.243214       0.240132
                          3       1   12dxz              0.243214       0.240132
                          3       1   12dy2              0.243214       0.138641
                          3       1   12dyz              0.243214       0.240132
                          3       1   12dz2              0.243214       0.138641

                          4       1    2s                0.249463       0.251574

                          5       1    9px               0.369271       0.410318
                          5       1    9py               0.369271       0.410318
                          5       1    9pz               0.369271       0.410318

                          6       1    3s                0.703965       0.547739

                          7       1   10px               1.060750       1.534462
                          7       1   10py               1.060750       1.534462
                          7       1   10pz               1.060750       1.534462

                          8       1   13dx2              1.258040       2.459659
                          8       1   13dxy              1.258040       4.260254
                          8       1   13dxz              1.258040       4.260254
                          8       1   13dy2              1.258040       2.459659
                          8       1   13dyz              1.258040       4.260254
                          8       1   13dz2              1.258040       2.459659

                          9       1    4s                1.772392       1.094788

                         10       1    5s                4.422255       2.173416

                         11       1   11px               6.551852      14.941533
                         11       1   11py               6.551852      14.941533
                         11       1   11pz               6.551852      14.941533

                         12       1   14dx2              8.501693      69.669696
                         12       1   14dxy              8.501693     120.671452
                         12       1   14dxz              8.501693     120.671452
                         12       1   14dy2              8.501693      69.669696
                         12       1   14dyz              8.501693     120.671452
                         12       1   14dz2              8.501693      69.669696

                         13       1    6s               10.342323       4.110301

                         14       1    7s               24.762598       7.911471

       Atomic covalent radius [Angstrom]:                                  1.360

       Atomic van der Waals radius [Angstrom]:                             1.730

     The atoms of this atomic kind are PAW atoms (GAPW):
       Hard Gaussian function radius:                                      1.512
       Rho0 radius:                                                        1.512
       Maximum GTO radius used for PAW projector construction:            24.566

     GAPW Soft Basis Set                             aug-SZV-MOLOPT-ae-mini_soft

       Number of orbital shell sets:                                           3
       Number of orbital shells:                                               7
       Number of primitive Cartesian functions:                                6
       Number of Cartesian basis functions:                                   13
       Number of spherical basis functions:                                   13
       Norm type:                                                              2

       Normalised Cartesian orbitals:

                        Set   Shell   Orbital            Exponent    Coefficient

                          1       1    1s                1.395448      -0.200964
                                                         0.389327       0.079246
                                                         0.152380       0.156510
                                                         0.050000       0.000000

                          1       2    2s                1.395448       0.000000
                                                         0.389327      -0.018019
                                                         0.152380       0.083942
                                                         0.050000      -0.100133

                          1       3    2px               1.395448       0.022890
                                                         0.389327       0.260899
                                                         0.152380       0.062696
                                                         0.050000       0.000000
                          1       3    2py               1.395448       0.022890
                                                         0.389327       0.260899
                                                         0.152380       0.062696
                                                         0.050000       0.000000
                          1       3    2pz               1.395448       0.022890
                                                         0.389327       0.260899
                                                         0.152380       0.062696
                                                         0.050000       0.000000

                          1       4    3px               1.395448       0.000000
                                                         0.389327       0.065530
                                                         0.152380       0.049338
                                                         0.050000       0.021015
                          1       4    3py               1.395448       0.000000
                                                         0.389327       0.065530
                                                         0.152380       0.049338
                                                         0.050000       0.021015
                          1       4    3pz               1.395448       0.000000
                                                         0.389327       0.065530
                                                         0.152380       0.049338
                                                         0.050000       0.021015

                          2       1    1s                3.513987       0.730788
                                                         1.142857       0.551536

                          2       2    2px               3.513987       4.167429
                                                         1.142857       0.660189
                          2       2    2py               3.513987       4.167429
                                                         1.142857       0.660189
                          2       2    2pz               3.513987       4.167429
                                                         1.142857       0.660189

                          3       1    1s         

     AE Potential information for                                            ALL

       Description:                                       All-electron potential
                                          Krack, Parrinello, PCCP 2, 2105 (2000)

       Gaussian exponent of the core charge distribution:              11.236029
       Electronic configuration (s p d ...):                           6   6   0

  2. Atomic kind: s                                     Number of atoms:       1

     Orbital Basis Set                                    aug-SZV-MOLOPT-ae-mini

       Number of orbital shell sets:                                           3
       Number of orbital shells:                                               7
       Number of primitive Cartesian functions:                               10
       Number of Cartesian basis functions:                                   13
       Number of spherical basis functions:                                   13
       Norm type:                                                              2

       Normalised Cartesian orbitals:

                        Set   Shell   Orbital            Exponent    Coefficient

                          1       1    1s                2.029194      -0.266118
                                                         0.566140       0.104938
                                                         0.221583       0.207251
                                                         0.100000       0.000000

                          1       2    2s                2.029194       0.000000
                                                         0.566140       0.204121
                                                         0.221583      -0.309021
                                                         0.100000      -0.000667

                          1       3    2px               2.029194       0.036552
                                                         0.566140       0.416614
                                                         0.221583       0.100116
                                                         0.100000       0.000000
                          1       3    2py               2.029194       0.036552
                                                         0.566140       0.416614
                                                         0.221583       0.100116
                                                         0.100000       0.000000
                          1       3    2pz               2.029194       0.036552
                                                         0.566140       0.416614
                                                         0.221583       0.100116
                                                         0.100000       0.000000

                          1       4    3px               2.029194       0.000000
                                                         0.566140      -0.277816
                                                         0.221583      -0.031781
                                                         0.100000       0.095870
                          1       4    3py               2.029194       0.000000
                                                         0.566140      -0.277816
                                                         0.221583      -0.031781
                                                         0.100000       0.095870
                          1       4    3pz               2.029194       0.000000
                                                         0.566140      -0.277816
                                                         0.221583      -0.031781
                                                         0.100000       0.095870

                          2       1    1s               33.329752      -0.988305
                                                         7.745118       1.321941
                                                         2.518953       0.997688

                          2       2    2px              33.329752      17.797990
                                                         7.745118      11.191879
                                                         2.518953       1.772979
                          2       2    2py              33.329752      17.797990
                                                         7.745118      11.191879
                                                         2.518953       1.772979
                          2       2    2pz              33.329752      17.797990
                                                         7.745118      11.191879
                                                         2.518953       1.772979

                          3       1    1s              533.125730      12.203369
                                                        97.109510      11.802561
                                                        26.281620       3.678347

     RI Auxiliary Basis Set             RI_aug-SZV-MOLOPT-ae-mini_N_RI_024_s_p_d

       Number of orbital shell sets:                                          10
       Number of orbital shells:                                              10
       Number of primitive Cartesian functions:                               10
       Number of Cartesian basis functions:                                   26
       Number of spherical basis functions:                                   24
       Norm type:                                                              2

       Normalised Cartesian orbitals:

                        Set   Shell   Orbital            Exponent    Coefficient

                          1       1    1s                0.223905       0.231984

                          2       1    9dx2              0.243010       0.138437
                          2       1    9dxy              0.243010       0.239780
                          2       1    9dxz              0.243010       0.239780
                          2       1    9dy2              0.243010       0.138437
                          2       1    9dyz              0.243010       0.239780
                          2       1    9dz2              0.243010       0.138437

                          3       1    6px               0.396147       0.447982
                          3       1    6py               0.396147       0.447982
                          3       1    6pz               0.396147       0.447982

                          4       1    2s                0.458945       0.397402

                          5       1    3s                0.920347       0.669690

                          6       1    7px               0.969722       1.371668
                          6       1    7py               0.969722       1.371668
                          6       1    7pz               0.969722       1.371668

                          7       1   10dx2              0.971807       1.565576
                          7       1   10dxy              0.971807       2.711657
                          7       1   10dxz              0.971807       2.711657
                          7       1   10dy2              0.971807       1.565576
                          7       1   10dyz              0.971807       2.711657
                          7       1   10dz2              0.971807       1.565576

                          8       1    4s                1.767285       1.092421

                          9       1    8px               1.953355       3.291673
                          9       1    8py               1.953355       3.291673
                          9       1    8pz               1.953355       3.291673

                         10       1    5s                3.375179       1.774732

       Atomic covalent radius [Angstrom]:                                  1.020

       Atomic van der Waals radius [Angstrom]:                             1.800

     The atoms of this atomic kind are PAW atoms (GAPW):
       Hard Gaussian function radius:                                      1.512
       Rho0 radius:                                                        1.512
       Maximum GTO radius used for PAW projector construction:            24.566

     GAPW Soft Basis Set                             aug-SZV-MOLOPT-ae-mini_soft

       Number of orbital shell sets:                                           3
       Number of orbital shells:                                               7
       Number of primitive Cartesian functions:                                5
       Number of Cartesian basis functions:                                   13
       Number of spherical basis functions:                                   13
       Norm type:                                                              2

       Normalised Cartesian orbitals:

                        Set   Shell   Orbital            Exponent    Coefficient

                          1       1    1s                2.029194      -0.266118
                                                         0.566140       0.104938
                                                         0.221583       0.207251
                                                         0.100000       0.000000

                          1       2    2s                2.029194       0.000000
                                                         0.566140       0.204121
                                                         0.221583      -0.309021
                                                         0.100000      -0.000667

                          1       3    2px               2.029194       0.036552
                                                         0.566140       0.416614
                                                         0.221583       0.100116
                                                         0.100000       0.000000
                          1       3    2py               2.029194       0.036552
                                                         0.566140       0.416614
                                                         0.221583       0.100116
                                                         0.100000       0.000000
                          1       3    2pz               2.029194       0.036552
                                                         0.566140       0.416614
                                                         0.221583       0.100116
                                                         0.100000       0.000000

                          1       4    3px               2.029194       0.000000
                                                         0.566140      -0.277816
                                                         0.221583      -0.031781
                                                         0.100000       0.095870
                          1       4    3py               2.029194       0.000000
                                                         0.566140      -0.277816
                                                         0.221583      -0.031781
                                                         0.100000       0.095870
                          1       4    3pz               2.029194       0.000000
                                                         0.566140      -0.277816
                                                         0.221583      -0.031781
                                                         0.100000       0.095870

                          2       1    1s                2.518953       0.997688

                          2       2    2px               2.518953       1.772979
                          2       2    2py               2.518953       1.772979
                          2       2    2pz               2.518953       1.772979

                          3       1    1s         

     AE Potential information for                                            ALL

       Description:                                       All-electron potential
                                          Krack, Parrinello, PCCP 2, 2105 (2000)

       Gaussian exponent of the core charge distribution:               2.834467
       Electronic configuration (s p d ...):                           6  10   0


 MOLECULE KIND INFORMATION


 All atoms are their own molecule, skipping detailed information


 TOTAL NUMBERS AND MAXIMUM NUMBERS

  Total number of            - Atomic kinds:                                   2
                             - Atoms:                                          2
                             - Shell sets:                                     6
                             - Shells:                                        14
                             - Primitive Cartesian functions:                 20
                             - Cartesian basis functions:                     26
                             - Spherical basis functions:                     26

  Maximum angular momentum of the orbital basis functions:                     1


 MODULE QUICKSTEP: ATOMIC COORDINATES IN ANGSTROM

   Atom Kind Element         X             Y             Z       Z(eff)     Mass
      1    1 mg   12     15.000000     15.000000     13.933764  12.0000  24.3050
      2    2 s    16     15.000000     15.000000     16.066236  16.0000  32.0650



 SCF PARAMETERS         Density guess:                                   RESTART
                        --------------------------------------------------------
                        max_scf:                                             500
                        max_scf_history:                                       0
                        max_diis:                                              4
                        --------------------------------------------------------
                        eps_scf:                                        1.00E-06
                        eps_scf_history:                                0.00E+00
                        eps_diis:                                       0.00E+00
                        eps_eigval:                                     1.00E-05
                        --------------------------------------------------------
                        level_shift [a.u.]:                             0.000000
                        --------------------------------------------------------
                        Outer loop SCF in use 
                        No variables optimised in outer loop
                        eps_scf                                         1.00E-06
                        max_scf                                               20
                        No outer loop optimization
                        step_size                                       5.00E-01

 PW_GRID| Information for grid number                                          1
 PW_GRID| Grid distributed over                                    16 processors
 PW_GRID| Real space group dimensions                                    16    1
 PW_GRID| the grid is blocked:                                                NO
 PW_GRID| Cutoff [a.u.]                                                    250.0
 PW_GRID| spherical cutoff:                                                   NO
 PW_GRID|   Bounds   1           -202     202                Points:         405
 PW_GRID|   Bounds   2           -202     202                Points:         405
 PW_GRID|   Bounds   3           -202     202                Points:         405
 PW_GRID| Volume element (a.u.^3)  0.2743E-02     Volume (a.u.^3)    182205.0337
 PW_GRID| Grid span                                                    FULLSPACE
 PW_GRID|   Distribution                         Average         Max         Min
 PW_GRID|   G-Vectors                          4151882.8     4152060     4151655
 PW_GRID|   G-Rays                               10251.6       10252       10251
 PW_GRID|   Real Space Points                  4151882.8     4264650     4100625

 PW_GRID| Information for grid number                                          2
 PW_GRID| Number of the reference grid                                         1
 PW_GRID| Grid distributed over                                    16 processors
 PW_GRID| Real space group dimensions                                    16    1
 PW_GRID| the grid is blocked:                                                NO
 PW_GRID| Cutoff [a.u.]                                                     83.3
 PW_GRID| spherical cutoff:                                                   NO
 PW_GRID|   Bounds   1           -120     119                Points:         240
 PW_GRID|   Bounds   2           -120     119                Points:         240
 PW_GRID|   Bounds   3           -120     119                Points:         240
 PW_GRID| Volume element (a.u.^3)  0.1318E-01     Volume (a.u.^3)    182205.0337
 PW_GRID| Grid span                                                    FULLSPACE
 PW_GRID|   Distribution                         Average         Max         Min
 PW_GRID|   G-Vectors                           864000.0      864720      863520
 PW_GRID|   G-Rays                                3600.0        3603        3598
 PW_GRID|   Real Space Points                   864000.0      864000      864000

 PW_GRID| Information for grid number                                          3
 PW_GRID| Number of the reference grid                                         1
 PW_GRID| Grid distributed over                                    16 processors
 PW_GRID| Real space group dimensions                                    16    1
 PW_GRID| the grid is blocked:                                                NO
 PW_GRID| Cutoff [a.u.]                                                     27.8
 PW_GRID| spherical cutoff:                                                   NO
 PW_GRID|   Bounds   1            -67      67                Points:         135
 PW_GRID|   Bounds   2            -67      67                Points:         135
 PW_GRID|   Bounds   3            -67      67                Points:         135
 PW_GRID| Volume element (a.u.^3)  0.7406E-01     Volume (a.u.^3)    182205.0337
 PW_GRID| Grid span                                                    FULLSPACE
 PW_GRID|   Distribution                         Average         Max         Min
 PW_GRID|   G-Vectors                           153773.4      154170      153630
 PW_GRID|   G-Rays                                1139.1        1142        1138
 PW_GRID|   Real Space Points                   153773.4      164025      145800

 PW_GRID| Information for grid number                                          4
 PW_GRID| Number of the reference grid                                         1
 PW_GRID| Grid distributed over                                    16 processors
 PW_GRID| Real space group dimensions                                    16    1
 PW_GRID| the grid is blocked:                                                NO
 PW_GRID| Cutoff [a.u.]                                                      9.3
 PW_GRID| spherical cutoff:                                                   NO
 PW_GRID|   Bounds   1            -40      39                Points:          80
 PW_GRID|   Bounds   2            -40      39                Points:          80
 PW_GRID|   Bounds   3            -40      39                Points:          80
 PW_GRID| Volume element (a.u.^3)  0.3559         Volume (a.u.^3)    182205.0337
 PW_GRID| Grid span                                                    FULLSPACE
 PW_GRID|   Distribution                         Average         Max         Min
 PW_GRID|   G-Vectors                            32000.0       32240       31840
 PW_GRID|   G-Rays                                 400.0         403         398
 PW_GRID|   Real Space Points                    32000.0       32000       32000

 POISSON| Solver                                                         WAVELET
 POISSON| Wavelet| Scaling function                                           40
 POISSON| Periodicity                                                       NONE

 RS_GRID| Information for grid number                                          1
 RS_GRID|   Bounds   1           -202     202                Points:         405
 RS_GRID|   Bounds   2           -202     202                Points:         405
 RS_GRID|   Bounds   3           -202     202                Points:         405
 RS_GRID| Real space distribution over                                  4 groups
 RS_GRID| Real space distribution along direction                              2
 RS_GRID| Border size                                                         33
 RS_GRID| Real space distribution over                                  4 groups
 RS_GRID| Real space distribution along direction                              3
 RS_GRID| Border size                                                         33
 RS_GRID|   Distribution                         Average         Max         Min
 RS_GRID|   Planes                                 167.2         168         167
 RS_GRID|   Distribution                         Average         Max         Min
 RS_GRID|   Planes                                 167.2         168         167

 RS_GRID| Information for grid number                                          2
 RS_GRID|   Bounds   1           -120     119                Points:         240
 RS_GRID|   Bounds   2           -120     119                Points:         240
 RS_GRID|   Bounds   3           -120     119                Points:         240
 RS_GRID| Real space distribution over                                  4 groups
 RS_GRID| Real space distribution along direction                              2
 RS_GRID| Border size                                                         34
 RS_GRID| Real space distribution over                                  4 groups
 RS_GRID| Real space distribution along direction                              3
 RS_GRID| Border size                                                         34
 RS_GRID|   Distribution                         Average         Max         Min
 RS_GRID|   Planes                                 128.0         128         128
 RS_GRID|   Distribution                         Average         Max         Min
 RS_GRID|   Planes                                 128.0         128         128

 RS_GRID| Information for grid number                                          3
 RS_GRID|   Bounds   1            -67      67                Points:         135
 RS_GRID|   Bounds   2            -67      67                Points:         135
 RS_GRID|   Bounds   3            -67      67                Points:         135
 RS_GRID| Real space fully replicated
 RS_GRID| Group size                                                           1

 RS_GRID| Information for grid number                                          4
 RS_GRID|   Bounds   1            -40      39                Points:          80
 RS_GRID|   Bounds   2            -40      39                Points:          80
 RS_GRID|   Bounds   3            -40      39                Points:          80
 RS_GRID| Real space fully replicated
 RS_GRID| Group size                                                           1

  HFX_INFO| Replica ID:                                                        1
  HFX_INFO| FRACTION:                                               0.2500000000
  HFX_INFO| Interaction Potential:                                       COULOMB
  HFX_INFO| EPS_SCHWARZ:                                                 1.0E-10
  HFX_INFO| EPS_SCHWARZ_FORCES                                           1.0E-08
  HFX_INFO| EPS_STORAGE_SCALING:                                         1.0E+00
  HFX_INFO| NBINS:                                                            64
  HFX_INFO| BLOCK_SIZE:                                                        1
  HFX_INFO| Number of periodic shells considered:                           NONE
  HFX_INFO| Number of periodic cells considered:                            NONE


 OVERLAP MATRIX CONDITION NUMBER
 1-Norm Condition Number (Estimate)
   CN : |A|*|A^-1|:  3.796E+000 *  6.454E+001   = 2.450E+002  Log(1-CN):  2.3891
 1-Norm and 2-Norm Condition Numbers using Diagonalization
   CN : |A|*|A^-1|:  3.796E+000 *  6.454E+001   = 2.450E+002  Log(1-CN):  2.3891
   CN : max/min ev:  3.134E+000 /  1.999E-002   = 1.568E+002  Log(2-CN):  2.1954

 Number of electrons:                                                         28
 Number of occupied orbitals:                                                 14
 Number of molecular orbitals:                                                14

 Number of orbital functions:                                                 26
 Number of independent orbital functions:                                     26

 Extrapolation method: initial_guess


 SCF WAVEFUNCTION OPTIMIZATION

  ----------------------------------- OT ---------------------------------------
  Minimizer      : CG                  : conjugate gradient
  Preconditioner : FULL_SINGLE_INVERSE : inversion of 
                                         H + eS - 2*(Sc)(c^T*H*c+const)(Sc)^T
  Precond_solver : DEFAULT
  Line search    : 3PNT                : 3 energies
  stepsize       :    0.08000000                  energy_gap     :    0.08000000
  eps_taylor     :   0.10000E-15                  max_taylor     :             4
  ----------------------------------- OT ---------------------------------------

  Step     Update method      Time    Convergence         Total energy    Change
  ------------------------------------------------------------------------------

  HFX_MEM_INFO| Est. max. program size before HFX [MiB]:                    2325
  HFX_MEM_INFO| Number of cart. primitive ERI's calculated:              4850631
  HFX_MEM_INFO| Number of sph. ERI's calculated:                          168123
  HFX_MEM_INFO| Number of sph. ERI's stored in-core:                      168123
  HFX_MEM_INFO| Number of sph. ERI's stored on disk:                           0
  HFX_MEM_INFO| Number of sph. ERI's calculated on the fly:                    0
  HFX_MEM_INFO| Total memory consumption ERI's RAM [MiB]:                      1
  HFX_MEM_INFO| Whereof max-vals [MiB]:                                        1
  HFX_MEM_INFO| Total compression factor ERI's RAM:                         1.45
  HFX_MEM_INFO| Total memory consumption ERI's disk [MiB]:                     0
  HFX_MEM_INFO| Total compression factor ERI's disk:                        0.00
  HFX_MEM_INFO| Size of density/Fock matrix [MiB]:                             0
  HFX_MEM_INFO| Size of buffers [MiB]:                                         0
  HFX_MEM_INFO| Est. max. program size after HFX  [MiB]:                    2808

     1 OT CG       0.64E-01    4.1     0.00000519      -591.4310031759 -5.91E+02
     - OT LS       0.32E-01    2.2                     -591.4310031737
     - OT LS       0.71E-02    2.2                     -591.4310031755
     2 OT CG       0.57E-02    3.0     0.00001565      -591.4310031759 -3.50E-11
     - OT LS       0.28E-02    2.2                     -591.4310031750
     - OT LS       0.98E-03    2.2                     -591.4310031758
     3 OT CG       0.78E-03    3.0     0.00001412      -591.4310031760 -4.34E-11
     - OT LS       0.11E-02    2.2                     -591.4310031760
     - OT LS       0.17E-02    2.2                     -591.4310031760
     4 OT CG       0.14E-02    3.0     0.00001514      -591.4310031760 -6.07E-11
     - OT LS       0.19E-02    2.2                     -591.4310031761
     - OT LS       0.27E-02    2.2                     -591.4310031761
     5 OT CG       0.21E-02    3.0     0.00001469      -591.4310031761 -1.09E-10
     - OT LS       0.30E-02    2.3                     -591.4310031763
     - OT LS       0.43E-02    2.3                     -591.4310031763
     6 OT CG       0.34E-02    3.1     0.00001758      -591.4310031763 -1.65E-10
     - OT LS       0.48E-02    2.3                     -591.4310031764
     - OT LS       0.23E-02    2.2                     -591.4310031763
     7 OT CG       0.18E-02    3.1     0.00001873      -591.4310031764 -1.29E-10
     - OT LS       0.26E-02    2.3                     -591.4310031765
     - OT LS       0.10E-02    2.2                     -591.4310031763
     8 OT CG       0.80E-03    3.1     0.00002007      -591.4310031765 -6.36E-11
     - OT LS       0.11E-02    2.2                     -591.4310031766
     - OT LS       0.13E-02    2.2                     -591.4310031766
     9 OT CG       0.11E-02    3.1     0.00001919      -591.4310031766 -9.92E-11
     - OT LS       0.15E-02    2.3                     -591.4310031767
     - OT LS       0.23E-02    2.2                     -591.4310031767
    10 OT CG       0.18E-02    3.1     0.00001904      -591.4310031768 -1.54E-10
     - OT LS       0.26E-02    2.2                     -591.4310031769
     - OT LS       0.21E-02    2.2                     -591.4310031769
    11 OT CG       0.16E-02    3.1     0.00001385      -591.4310031769 -1.35E-10
     - OT LS       0.23E-02    2.3                     -591.4310031770
     - OT LS       0.47E-02    2.3                     -591.4310031770
    12 OT CG       0.37E-02    3.1     0.00001128      -591.4310031770 -1.59E-10
     - OT LS       0.19E-02    2.3                     -591.4310031770
     - OT LS       0.16E-02    2.3                     -591.4310031771
    13 OT CG       0.13E-02    3.1     0.00001786      -591.4310031771 -3.59E-11
     - OT LS       0.18E-02    2.3                     -591.4310031772
     - OT LS       0.13E-02    2.2                     -591.4310031771
    14 OT CG       0.10E-02    3.1     0.00001174      -591.4310031772 -7.36E-11
     - OT LS       0.14E-02    2.2                     -591.4310031772
     - OT LS       0.14E-02    2.2                     -591.4310031772
    15 OT CG       0.12E-02    3.1     0.00001120      -591.4310031772 -3.64E-11
     - OT LS       0.16E-02    2.2                     -591.4310031772
     - OT LS       0.38E-02    2.2                     -591.4310031773
    16 OT CG       0.31E-02    3.1     0.00001721      -591.4310031773 -8.61E-11
     - OT LS       0.15E-02    2.2                     -591.4310031769
     - OT LS       0.70E-03    2.2                     -591.4310031773
    17 OT CG       0.56E-03    3.1     0.00001344      -591.4310031773 -3.65E-11
     - OT LS       0.79E-03    2.3                     -591.4310031773
     - OT LS       0.17E-02    2.3                     -591.4310031774
    18 OT CG       0.13E-02    3.1     0.00000772      -591.4310031774 -5.73E-11
     - OT LS       0.19E-02    2.3                     -591.4310031774
     - OT LS       0.25E-02    2.3                     -591.4310031774
    19 OT CG       0.20E-02    3.1     0.00001195      -591.4310031774 -2.73E-11
     - OT LS       0.10E-02    2.3                     -591.4310031774
     - OT LS       0.77E-03    2.3                     -591.4310031774
    20 OT CG       0.62E-03    3.1     0.00000901      -591.4310031774 -1.91E-11
     - OT LS       0.87E-03    2.2                     -591.4310031774
     - OT LS       0.17E-02    2.2                     -591.4310031774
    21 OT CG       0.14E-02    3.1     0.00000806      -591.4310031774 -2.46E-11
     - OT LS       0.19E-02    2.2                     -591.4310031775
     - OT LS       0.18E-02    2.3                     -591.4310031775
    22 OT CG       0.14E-02    3.1     0.00000695      -591.4310031775 -2.08E-11
     - OT LS       0.20E-02    2.2                     -591.4310031775
     - OT LS       0.13E-02    2.2                     -591.4310031775
    23 OT CG       0.10E-02    3.1     0.00000746      -591.4310031775 -1.09E-11
     - OT LS       0.14E-02    2.2                     -591.4310031775
     - OT LS       0.99E-03    2.3                     -591.4310031775
    24 OT CG       0.80E-03    3.1     0.00000720      -591.4310031775 -1.02E-11
     - OT LS       0.11E-02    2.3                     -591.4310031775
     - OT LS       0.34E-02    2.3                     -591.4310031775
    25 OT CG       0.27E-02    3.1     0.00000677      -591.4310031775 -3.08E-11
     - OT LS       0.38E-02    2.3                     -591.4310031775
     - OT LS       0.16E-02    2.2                     -591.4310031775
    26 OT CG       0.13E-02    3.1     0.00000818      -591.4310031775 -1.31E-11
     - OT LS       0.18E-02    2.2                     -591.4310031775
     - OT LS       0.13E-02    2.2                     -591.4310031775
    27 OT CG       0.10E-02    3.1     0.00000859      -591.4310031775 -1.56E-11
     - OT LS       0.14E-02    2.2                     -591.4310031776
     - OT LS       0.86E-03    2.2                     -591.4310031776
    28 OT CG       0.69E-03    3.1     0.00000472      -591.4310031776 -1.15E-11
     - OT LS       0.96E-03    2.3                     -591.4310031776
     - OT LS       0.22E-02    2.2                     -591.4310031776
    29 OT CG       0.17E-02    3.1     0.00000344      -591.4310031776 -9.89E-12
     - OT LS       0.24E-02    2.3                     -591.4310031776
     - OT LS       0.16E-02    2.3                     -591.4310031776
    30 OT CG       0.13E-02    3.1     0.00000489      -591.4310031776 -3.98E-12
     - OT LS       0.18E-02    2.3                     -591.4310031776
     - OT LS       0.11E-02    2.3                     -591.4310031776
    31 OT CG       0.91E-03    3.1     0.00000476      -591.4310031776 -5.12E-12
     - OT LS       0.13E-02    2.2                     -591.4310031776
     - OT LS       0.17E-02    2.2                     -591.4310031776
    32 OT CG       0.14E-02    3.1     0.00000472      -591.4310031776 -7.73E-12
     - OT LS       0.19E-02    2.2                     -591.4310031776
     - OT LS       0.24E-02    2.2                     -591.4310031776
    33 OT CG       0.19E-02    3.1     0.00000375      -591.4310031776 -1.03E-11
     - OT LS       0.27E-02    2.3                     -591.4310031776
     - OT LS       0.10E-02    2.2                     -591.4310031776
    34 OT CG       0.83E-03    3.1     0.00000429      -591.4310031776 -2.50E-12
     - OT LS       0.12E-02    2.2                     -591.4310031776
     - OT LS       0.12E-02    2.2                     -591.4310031776
    35 OT CG       0.10E-02    3.1     0.00000415      -591.4310031776 -4.32E-12
     - OT LS       0.14E-02    2.2                     -591.4310031776
     - OT LS       0.43E-02    2.2                     -591.4310031776
    36 OT CG       0.34E-02    3.1     0.00000571      -591.4310031776 -1.25E-11
     - OT LS       0.17E-02    2.2                     -591.4310031776
     - OT LS       0.16E-02    2.2                     -591.4310031776
    37 OT CG       0.13E-02    3.1     0.00000593      -591.4310031776 -8.41E-12
     - OT LS       0.18E-02    2.3                     -591.4310031776
     - OT LS       0.89E-03    2.3                     -591.4310031776
    38 OT CG       0.71E-03    3.1     0.00000520      -591.4310031776 -5.91E-12
     - OT LS       0.10E-02    2.2                     -591.4310031776
     - OT LS       0.89E-03    2.2                     -591.4310031776
    39 OT CG       0.72E-03    3.1     0.00000289      -591.4310031776 -4.32E-12
     - OT LS       0.10E-02    2.2                     -591.4310031776
     - OT LS       0.20E-02    2.2                     -591.4310031776
    40 OT CG       0.16E-02    3.1     0.00000228      -591.4310031776 -4.77E-12
     - OT LS       0.22E-02    2.2                     -591.4310031776
     - OT LS       0.18E-02    2.2                     -591.4310031776
    41 OT CG       0.14E-02    3.1     0.00000377      -591.4310031776 -2.05E-12
     - OT LS       0.20E-02    2.2                     -591.4310031776
     - OT LS       0.15E-02    2.3                     -591.4310031776
    42 OT CG       0.12E-02    3.1     0.00000410      -591.4310031776 -4.21E-12
     - OT LS       0.16E-02    2.2                     -591.4310031776
     - OT LS       0.15E-02    2.2                     -591.4310031776
    43 OT CG       0.12E-02    3.1     0.00000354      -591.4310031776 -4.21E-12
     - OT LS       0.17E-02    2.3                     -591.4310031777
     - OT LS       0.20E-02    2.2                     -591.4310031777
    44 OT CG       0.16E-02    3.1     0.00000279      -591.4310031777 -4.43E-12
     - OT LS       0.81E-03    2.2                     -591.4310031776
     - OT LS       0.58E-03    2.2                     -591.4310031777
    45 OT CG       0.47E-03    3.1     0.00000200      -591.4310031777 -6.82E-13
     - OT LS       0.65E-03    2.2                     -591.4310031777
     - OT LS       0.13E-02    2.2                     -591.4310031777
    46 OT CG       0.10E-02    3.1     0.00000143      -591.4310031777 -1.59E-12
     - OT LS       0.15E-02    2.2                     -591.4310031777
     - OT LS       0.13E-02    2.2                     -591.4310031777
    47 OT CG       0.10E-02    3.1     0.00000221      -591.4310031777 -2.27E-13
     - OT LS       0.14E-02    2.2                     -591.4310031777
     - OT LS       0.86E-03    2.2                     -591.4310031777
    48 OT CG       0.69E-03    3.1     0.00000258      -591.4310031777 -6.82E-13
     - OT LS       0.96E-03    2.2                     -591.4310031777
     - OT LS       0.58E-03    2.3                     -591.4310031777
    49 OT CG       0.46E-03    3.1     0.00000172      -591.4310031777 -6.82E-13
     - OT LS       0.65E-03    2.2                     -591.4310031777
     - OT LS       0.65E-05    2.3                     -591.4310031777
    50 OT CG       0.52E-05    3.1     0.00000172      -591.4310031777 -2.27E-13
     - OT LS       0.26E-05    2.2                     -591.4310031777
     - OT LS       0.10E-04    2.2                     -591.4310031777
    51 OT CG       0.83E-05    3.1     0.00000168      -591.4310031777  0.00E+00
     - OT LS       0.41E-05    2.2                     -591.4310031777
     - OT LS       0.17E-04    2.2                     -591.4310031777
    52 OT CG       0.13E-04    3.0     0.00000162      -591.4310031777  3.41E-13
     - OT LS       0.19E-04    2.2                     -591.4310031777
     - OT LS       0.37E-04    2.2                     -591.4310031777
    53 OT CG       0.30E-04    3.1     0.00000151      -591.4310031777 -2.27E-13
     - OT LS       0.42E-04    2.2                     -591.4310031777
     - OT LS       0.83E-04    2.3                     -591.4310031777
    54 OT CG       0.66E-04    3.1     0.00000130      -591.4310031777  0.00E+00
     - OT LS       0.93E-04    2.2                     -591.4310031777
     - OT LS       0.33E-04    2.2                     -591.4310031777
    55 OT CG       0.27E-04    3.1     0.00000124      -591.4310031777  0.00E+00
     - OT LS       0.37E-04    2.2                     -591.4310031777
     - OT LS       0.74E-04    2.2                     -591.4310031777
    56 OT CG       0.60E-04    3.0     0.00000112      -591.4310031777  1.14E-13
     - OT LS       0.83E-04    2.2                     -591.4310031777
     - OT LS       0.17E-03    2.2                     -591.4310031777
    57 OT CG       0.13E-03    3.0     0.00000096      -591.4310031777 -2.27E-13

  *** SCF run converged in    57 steps ***


  Electronic density on regular grids:        -17.6362252778       10.3637747222
  Core density on regular grids:               28.0000000000        0.0000000000
  Hard and soft densities (Lebedev):          -29.0211049929      -18.6573301497
  Total Rho_soft + Rho1_hard - Rho1_soft      -28.0000001210
  Total charge density (r-space):              -0.0000001210
  Total Rho_soft + Rho0_soft (g-space):        -0.0000001825

  Overlap energy of the core charge distribution:               0.00000000000000
  Self energy of the core charge distribution:               -364.50921194713618
  Core Hamiltonian energy:                                   -243.69624713517609
  Hartree energy:                                              44.87035956893910
  Exchange-correlation energy:                                 -8.88357883619827
  Hartree-Fock Exchange energy:                               -10.18615277975408

  GAPW| Exc from hard and soft atomic rho1:                   -22.48148655193627
  GAPW| local Eh = 1 center integrals:                         13.45531450360609

  Total energy:                                              -591.43100317765561

  outer SCF iter =    1 RMS gradient =   0.96E-06 energy =       -591.4310031777
  outer SCF loop converged in   1 iterations or  169 steps


 !-----------------------------------------------------------------------------!
                     Mulliken Population Analysis

 #  Atom  Element  Kind  Atomic population                           Net charge
       1     mg       1         11.349093                              0.650907
       2     s        2         16.650907                             -0.650907
 # Total charge                             28.000000                 -0.000000

 !-----------------------------------------------------------------------------!

 !-----------------------------------------------------------------------------!
                           Hirshfeld Charges

  #Atom  Element  Kind  Ref Charge     Population                    Net charge
      1       mg     1      12.000         11.732                         0.268
      2       s      2      16.000         16.267                        -0.267

  Total Charge                                                            0.000
 !-----------------------------------------------------------------------------!

 *******************************************************************************
 **                                                                           **
 **         ######## #######   #######   ######## #######  ########           **
 **            ##    ##     ## ##     ## ##       ##   ##     ##              **
 **            ##    ##     ## ##     ## ######   #######     ##              **
 **            ##    ##     ## ##     ## ##       ##          ##              **
 **            ##    #######   #######   ##       ##          ##              **
 **                                                                           **
 *******************************************************************************
 KERNEL|                                                                    FULL
 FUNCTIONAL| PBE:
 FUNCTIONAL| J.P.Perdew, K.Burke, M.Ernzerhof, Phys. Rev. Letter, vol. 77, n 18,
 FUNCTIONAL|  pp. 3865-3868, (1996)sx=0.750sc=1.000{spin unpolarized}           
 KERNEL|                                                          Exact Exchange
 KERNEL| Spin symmetry of excitations                                    Singlet
 TDDFPT| Number of states calculated                                          20
 TDDFPT| Number of Davidson iterations                                       100
 TDDFPT| Davidson iteration convergence                                0.367E-07
 TDDFPT| Max. number of Krylov space vectors                                5000
 TDDFPT| Molecular Orbitals:        Spin       AOs       Occ      Virt     Total
 TDDFPT|                               1        26        14        12        26
 
 -------------------------------------------------------------------------------
 -                            TDDFPT Initial Guess                             -
 -------------------------------------------------------------------------------
          State         Occupied      ->      Virtual          Excitation
          number         orbital              orbital          energy (eV)
 -------------------------------------------------------------------------------
             1               14                   15              2.12974
             2               13                   15              2.12974
             3               12                   15              3.57964
             4               14                   16              5.15834
             5               13                   16              5.15834
             6               14                   17              5.15835
             7               13                   17              5.15835
             8               12                   16              6.60824
             9               12                   17              6.60824
            10               14                   18              7.62404
            11               13                   18              7.62404
            12               12                   18              9.07393
            13               14                   19             11.41820
            14               13                   19             11.41820
            15               12                   19             12.86810
            16               11                   15             13.43786
            17               14                   20             16.37121
            18               13                   20             16.37121
            19               11                   16             16.46646
            20               11                   17             16.46646

      Number of active states:                                        168
 -------------------------------------------------------------------------------
 
 -------------------------------------------------------------------------------
 -                      TDDFPT WAVEFUNCTION OPTIMIZATION                       -
 -------------------------------------------------------------------------------

          Step            Time         Convergence           Conv. states
 -------------------------------------------------------------------------------

    State    Exc. energy (eV)      Convergence (eV)
        1       0.8577000            -1.2720E+00
        2       0.8577002            -1.2720E+00
        3       3.1205467            -4.5909E-01
        4       3.8301533            -1.3282E+00
        5       3.8720211            -1.2863E+00
        6       3.8720235            -1.2863E+00
        7       5.6172338             4.5889E-01
        8       5.6172378            -9.9100E-01
        9       6.4359031            -1.7234E-01
       10       6.4359036            -1.1881E+00
       11       7.4825292            -1.4151E-01
       12       8.2723431            -8.0159E-01
       13      10.1259555            -1.2922E+00
       14      10.1259562            -1.2922E+00
       15      12.5852792            -2.8282E-01
       16      13.5148544             7.6997E-02
       17      14.4275644            -1.9436E+00
       18      14.4275654            -1.9436E+00
       19      15.4862546            -9.8020E-01
       20      15.4862560            -9.8020E-01

             1            59.5          7.1428E-02                      0

    State    Exc. energy (eV)      Convergence (eV)
        1       0.8560236            -1.6764E-03
        2       0.8560237            -1.6764E-03
        3       3.1055116            -1.5035E-02
        4       3.8209480            -9.2053E-03
        5       3.8693334            -2.6877E-03
        6       3.8693359            -2.6876E-03
        7       5.6109864            -6.2474E-03
        8       5.6109904            -6.2474E-03
        9       6.4277412            -8.1619E-03
       10       6.4277417            -8.1619E-03
       11       6.9931684            -4.8936E-01
       12       7.8512809            -4.2106E-01
       13      10.1172384            -8.7171E-03
       14      10.1172391            -8.7171E-03
       15      12.2500316            -3.3525E-01
       16      13.1241445            -3.9071E-01
       17      14.4202503            -7.3141E-03
       18      14.4202513            -7.3141E-03
       19      15.4521085            -3.4146E-02
       20      15.4521102            -3.4146E-02

             2            61.5          1.7984E-02                      0

    State    Exc. energy (eV)      Convergence (eV)
        1       0.8560234            -2.2761E-07
        2       0.8560235            -2.2761E-07
        3       3.1054673            -4.4295E-05
        4       3.8209399            -8.0459E-06
        5       3.8693309            -2.4779E-06
        6       3.8693334            -2.4775E-06
        7       5.6109856            -7.6105E-07
        8       5.6109896            -7.6105E-07
        9       6.4277404            -7.6895E-07
       10       6.4277409            -7.6895E-07
       11       6.9918690            -1.2994E-03
       12       7.8508237            -4.5722E-04
       13      10.1172375            -9.2330E-07
       14      10.1172381            -9.2329E-07
       15      12.2467062            -3.3254E-03
       16      13.1214036            -2.7410E-03
       17      14.4202343            -1.5975E-05
       18      14.4202353            -1.5975E-05
       19      14.9635292            -4.8858E-01
       20      15.4511407            -9.6949E-04

             3            59.3          1.7955E-02                      8

    State    Exc. energy (eV)      Convergence (eV)
        1       0.8560234            -7.7049E-12
        2       0.8560235            -7.6662E-12
        3       3.1054673            -4.5933E-08
        4       3.8209399            -3.5983E-10
        5       3.8693309            -6.1969E-09
        6       3.8693334            -6.1961E-09
        7       5.6109856            -2.3375E-11
        8       5.6109896            -2.3377E-11
        9       6.4277404            -9.7673E-11
       10       6.4277409            -9.7695E-11
       11       6.9918670            -2.0125E-06
       12       7.8508229            -7.4155E-07
       13      10.1172375            -3.5186E-10
       14      10.1172381            -3.5183E-10
       15      12.2466981            -8.1052E-06
       16      13.1213999            -3.6483E-06
       17      14.4202343            -5.7960E-09
       18      14.4202353            -5.7969E-09
       19      14.9511897            -1.2340E-02
       20      14.9512050            -4.9994E-01

             4            59.7          1.8372E-02                     15

    State    Exc. energy (eV)      Convergence (eV)
        1       0.8560234            -7.0806E-14
        2       0.8560235            -3.3421E-14
        3       3.1054673            -3.1559E-12
        4       3.8209399            -3.2477E-14
        5       3.8693309            -1.6110E-12
        6       3.8693334            -1.5430E-12
        7       5.6109856            -3.0211E-15
        8       5.6109896            -2.7945E-14
        9       6.4277404            -4.0029E-14
       10       6.4277409            -1.3595E-14
       11       6.9918670            -7.8395E-11
       12       7.8508229            -4.6321E-11
       13      10.1172375            -9.0632E-14
       14      10.1172381            -1.1933E-13
       15      12.2466981            -3.4870E-09
       16      13.1213999            -2.6122E-09
       17      14.4202343            -1.5891E-12
       18      14.4202353            -8.1267E-13
       19      14.8972039            -5.3986E-02
       20      14.8972189            -5.3986E-02

             5            59.1          1.9840E-03                     18

[...]
 MP_Alltoall          6946              163628232.
 MP_SendRecv          9330                 784100.
 MP_ISendRecv        19410                 239689.
 MP_Wait             57473
 MP_comm_split          24
 MP_ISend            32740                3600254.
 MP_IRecv            33152                3554657.
 -------------------------------------------------------------------------------


 -------------------------------------------------------------------------------
 -                                                                             -
 -                           R E F E R E N C E S                               -
 -                                                                             -
 -------------------------------------------------------------------------------
 
 CP2K version 2025.1 (Development Version), the CP2K developers group (2025).
 CP2K is freely available from https://www.cp2k.org/ .
 
 T. D. Kuehne, M. Iannuzzi, M. Del Ben, V. V. Rybkin, P. Seewald, F. Stein, T. 
 Laino, R. Z. Khaliullin, O. Schuett, F. Schiffmann, D. Golze, J. Wilhelm, S. 
 Chulkov, M. H. Bani-Hashemian, V. Weber, U. Borstnik, M. Taillefumier, A. S. 
 Jakobovits, A. Lazzaro, H. Pabst, T. Mueller, R. Schade, M. Guidon, S. 
 Andermatt, N. Holmberg, G. K. Schenter, A. Hehn, A. Bussy, F. Belleflamme, G. 
 Tabacchi, A. Gloess, M. Lass, I. Bethune, C. J. Mundy, C. Plessl, M. Watkins, 
 J. VandeVondele, M. Krack, J. Hutter.
 J. Chem. Phys. 152, 194103 (2020).
 CP2K: An electronic structure and molecular dynamics software package - 
 Quickstep: Efficient and accurate electronic structure calculations.
 https://doi.org/10.1063/5.0007045

 O. Schuett, P. Messmer, J. Hutter, J. VandeVondele.
 Electronic Structure Calculations on Graphics Processing Units, 173-190 (2016).
 GPU-Accelerated Sparse Matrix-Matrix Multiplication for Linear Scaling Density 
 Functional Theory.
 https://doi.org/10.1002/9781118670712.ch8

 A. Heinecke, G. Henry, M. Hutchinson, H. Pabst.
 Proceedings of Intl. Supercomputing Conference, 981-991 (2016).
 LIBXSMM: Accelerating Small Matrix Multiplications by Runtime Code Generation.
 https://doi.org/10.1109/SC.2016.83

 J. Hutter, M. Iannuzzi, F. Schiffmann, J. VandeVondele.
 WIREs Comput Mol Sci. 4, 15-25 (2014).
 CP2K: atomistic simulations of condensed matter systems.
 https://doi.org/10.1002/wcms.1159

 U. Borstnik, J. VandeVondele, V. Weber, J. Hutter.
 Parallel Comput. 40, 47-58 (2014).
 Sparse matrix multiplication: The distributed block-compressed sparse row 
 library.
 https://doi.org/10.1016/j.parco.2014.03.012

 A. Marek, V. Blum, R. Johanni, V. Havu, B. Lang, T. Auckenthaler, A. Heinecke, 
 H. Bungartz, H. Lederer.
 J. Phys. Condens. Matter 26, 213201 (2014).
 The ELPA library: scalable parallel eigenvalue solutions for electronic 
 structure theory and computational science.
 https://doi.org/10.1088/0953-8984/26/21/213201

 M. Guidon, J. Hutter, J. VandeVondele.
 J. Chem. Theory Comput. 5, 3010-3021 (2009).
 Robust Periodic Hartree-Fock Exchange for Large-Scale Simulations Using 
 Gaussian Basis Sets.
 https://doi.org/10.1021/ct900494g

 M. Guidon, F. Schiffmann, J. Hutter, J. VandeVondele.
 J. Chem. Phys. 128, 214104 (2008).
 Ab initio molecular dynamics using hybrid density functionals.
 https://doi.org/10.1063/1.2931945

 L. Genovese, T. Deutsch, S. Goedecker.
 J. Chem. Phys. 127, 054704 (2007).
 Efficient and accurate three-dimensional Poisson solver for surface problems.
 https://doi.org/10.1063/1.2754685

 J. VandeVondele, J. Hutter.
 J. Chem. Phys. 127, 114105 (2007).
 Gaussian basis sets for accurate calculations on molecular systems in gas and 
 condensed phases.
 https://doi.org/10.1063/1.2770708

 L. Genovese, T. Deutsch, A. Neelov, S. Goedecker, G. Beylkin.
 J. Chem. Phys. 125, 074105 (2006).
 Efficient solution of Poisson's equation with free boundary conditions.
 https://doi.org/10.1063/1.2335442

 M. Iannuzzi, T. Chassaing, T. Wallman, J. Hutter.
 CHIMIA 59, 499-503 (2005).
 Ground and excited state density functional calculations with the Gaussian and 
 augmented-plane-wave method.
 https://doi.org/10.2533/000942905777676164

 M. Frigo, S. G. Johnson.
 Proc. IEEE 93, 216-231 (2005).
 The design and implementation of FFTW3.
 https://doi.org/10.1109/JPROC.2004.840301

 J. VandeVondele, J. Hutter.
 J. Chem. Phys. 118, 4365-4369 (2003).
 An efficient orbital transformation method for electronic structure 
 calculations.
 https://doi.org/10.1063/1.1543154

 R. L. Martin.
 J. Chem. Phys. 118, 4775-4777 (2003).
 Natural transition orbitals.
 https://doi.org/10.1063/1.1558471

 M. Krack, M. Parrinello.
 Phys. Chem. Chem. Phys. 2, 2105-2112 (2000).
 All-electron ab-initio molecular dynamics.
 https://doi.org/10.1039/b001167n

 G. Lippert, J. Hutter, M. Parrinello.
 Theor. Chem. Acc. 103, 124-140 (1999).
 The Gaussian and augmented-plane-wave density functional method for ab initio 
 molecular dynamics simulations.
 https://doi.org/10.1007/s002140050523

 J. P. Perdew, K. Burke, M. Ernzerhof.
 Phys. Rev. Lett. 77, 3865-3868 (1996).
 Generalized gradient approximation made simple.
 https://doi.org/10.1103/PhysRevLett.77.3865


 -------------------------------------------------------------------------------
 -                                                                             -
 -                                T I M I N G                                  -
 -                                                                             -
 -------------------------------------------------------------------------------
 SUBROUTINE                       CALLS  ASD         SELF TIME        TOTAL TIME
                                MAXIMUM       AVERAGE  MAXIMUM  AVERAGE  MAXIMUM
 CP2K                                 1  1.0    0.019    0.027  848.248  848.258
 qs_energies                          1  2.0    0.000    0.000  847.282  847.293
 scf_env_do_scf                       1  3.0    0.000    0.000  427.504  427.508
 scf_env_do_scf_inner_loop          169  4.0    0.003    0.007  423.429  423.434
 qs_energies_properties               1  3.0    0.000    0.000  418.620  418.625
 tddfpt                               1  4.0    0.001    0.002  418.620  418.625
 tddfpt_energies                      1  5.0    0.000    0.000  418.610  418.615
 tddfpt_davidson_solver               1  6.0    0.000    0.001  417.274  417.279
 tddfpt_compute_Aop_evects            7  7.0    0.000    0.000  416.963  416.968
 fhxc_kernel                          7  8.0    0.005    0.005  410.860  410.864
 fft_wrap_pw1pw2                   5187 10.7    0.104    0.116  400.942  405.082
 fft_wrap_pw1pw2_250               3663 11.9   15.094   15.877  389.168  395.529
 qs_ks_update_qs_env                170  5.0    0.001    0.001  359.247  359.253
 rebuild_ks_matrix                  169  6.0    0.000    0.000  359.239  359.246
 qs_ks_build_kohn_sham_matrix       169  7.0    0.022    0.024  359.239  359.245
 pw_poisson_solve                   309  8.9    9.739   10.882  324.910  325.402
 fft3d_ps                          5187 12.7  137.134  147.654  269.752  277.689
 ps_wavelet_solve                   309  9.9  173.802  190.171  209.203  209.970
 xc_pw_derive                      1521 11.0    0.010    0.011  182.363  185.275
 tddfpt_apply_coulomb               140  9.0    0.002    0.002  171.534  171.928
 tddfpt_apply_xc_analytic           140  9.0    0.667    0.719  125.658  126.103
 qs_rho_update_rho_low              311  6.8    0.003    0.003  124.386  124.388
 calculate_rho_elec                 311  7.8    4.834    4.983  124.325  124.328
 qs_vxc_create                      169  8.0    0.002    0.002  112.940  112.949
 mp_alltoall_z22v                  5187 14.7   84.511  100.580   84.511  100.580
 xc_pw_divergence                   197 10.7    0.004    0.004   96.717   99.341
 density_rs2pw                      311  8.8    0.011    0.012   98.035   99.117
 mp_alltoall_d54                    309 10.9   24.697   97.210   24.697   97.210
 xc_rho_set_and_dset_create         170 10.0    1.233    1.427   70.718   83.927
 x_to_yz                           2535 13.9   26.520   28.415   70.990   76.717
 xc_calc_2nd_deriv_analytical       700 10.2    5.024    5.325   73.590   74.092
 yz_to_x                           2652 13.6   21.500   23.072   61.540   70.445
 xc_vxc_pw_create                    57  9.0    1.282    1.349   56.524   56.533
 xc_exc_calc                        112  9.0    1.752    1.815   56.414   56.414
 pw_gather_p                       2652 12.6   51.267   55.656   51.267   55.656
 prepare_gapw_den                   310  8.4    0.003    0.003   54.345   55.532
 put_rho0_on_grid                   310  9.4    4.837    4.984   53.826   55.012
 pw_scatter_p                      2535 12.9   48.217   49.437   48.217   49.437
 integrate_v_rspace                 197  9.0    0.005    0.005   44.740   44.866
 potential_pw2rs                    197 10.0    0.076    0.079   44.667   44.732
 transfer_rs2pw                    1555  9.9    0.030    0.036   34.961   36.431
 transfer_pw2rs                    1098 10.7    0.017    0.020   33.979   35.174
 mp_waitany                       32740 12.2   24.757   30.513   24.757   30.513
 transfer_pw2rs_250                 507 11.3    9.886   11.669   26.720   28.778
 transfer_rs2pw_250                 622 11.1   11.169   13.654   26.036   28.132
 mp_sum_d                          4111  9.2   15.326   23.234   15.326   23.234
 pw_derive                         2448 11.6   21.559   22.580   21.559   22.580
 grid_collocate_task_list           311  8.8   20.277   21.137   20.277   21.137
 xc_functional_eval                1406 10.8    0.002    0.004    7.224   20.596
 pbe_lda_eval                      1406 11.8    7.222   20.592    7.222   20.592
 integrate_vhg0_rspace              309  8.9    0.041    0.055   20.372   20.433
 mp_alltoall_d11v                 12643 11.7   10.039   15.883   10.039   15.883
 cp2k_distribution_to_z_slices      309  9.9    7.773    8.656   14.014   14.833
 mp_alltoall_d45                    310 10.9    8.649   14.629    8.649   14.629
 mp_waitall_1                    145857 13.7    8.811   14.297    8.811   14.297
 pw_copy                           3800 10.8   13.045   13.622   13.045   13.622
 sum_up_and_integrate                57  8.0    0.000    0.001   12.972   13.020
 pw_poisson_set                     310  9.9    0.006    0.006   12.161   12.753
 fft_wrap_pw1pw2_90                 508 11.3    0.389    0.409    9.890   11.863
 pw_copy_to_array                  2652 12.6    9.170   10.036    9.170   10.036
 pw_integral_ab_c1d_c1d_gs          309  9.9    6.775    7.269    8.492    9.660
 integrate_four_center              449  9.6    4.397    9.053    9.491    9.532
 mp_sync                           2301 11.4    4.674    9.065    4.674    9.065
 pw_axpy                           2678 10.2    8.325    8.838    8.325    8.838
 pw_copy_from_array                2535 12.9    6.859    7.284    6.859    7.284
 mp_isend_dm3                      6548 12.2    1.742    6.325    1.742    6.325
 rs_grid_zero                      1324 11.4    5.972    6.193    5.972    6.193
 tddfpt_apply_hfx                     7  8.0    0.001    0.001    5.998    5.998
 transfer_rs2pw_90                  311 10.8    1.360    1.593    5.162    5.904
 pw_zero                           2728 10.5    5.431    5.717    5.431    5.717
 tddft_hfx_matrix                   280  9.0    0.002    0.003    5.635    5.654
 transfer_pw2rs_90                  197 12.0    0.966    1.131    4.667    5.368
 mp_isend_dv                      43193 12.8    2.367    4.883    2.367    4.883
 init_scf_loop                        1  4.0    0.000    0.000    4.073    4.073
 hfx_ks_matrix                      169  8.0    0.002    0.003    3.864    3.887
 mp_irecv_dm3                      6548 12.2    0.601    3.374    0.601    3.374
 mp_max_i                           764  5.4    1.802    3.155    1.802    3.155
 transfer_rs2pw_30                  311 10.8    1.055    1.297    2.902    3.051
 transfer_pw2rs_30                  197 12.0    0.805    0.884    2.117    2.661
 mp_sum_dm                         1891  9.2    1.453    2.626    1.453    2.626
 mp_sendrecv_dv                    9330 11.8    2.461    2.619    2.461    2.619
 scale_and_distribute               618 10.9    2.149    2.516    2.149    2.516
 Vh_1c_gg_integrals                 309  8.9    0.020    0.098    1.143    1.992
 prepare_dr1dr                      700 11.2    1.498    1.694    1.498    1.694
 fft_wrap_pw1pw2_30                 508 11.3    0.074    0.078    1.436    1.655
 dbcsr_multiply_generic            2532  9.8    0.048    0.050    1.061    1.082
 calculate_xc_2nd_deriv_atom        140  9.0    0.027    0.184    0.095    1.024
 pw_poisson_rebuild                 309  9.9    0.000    0.000    0.988    1.012
 ps_wavelet_create                    1 10.0    0.000    0.000    0.988    1.012
 RS_z_slice_distribution              1 11.0    0.894    0.934    0.988    1.012
 transfer_rs2pw_10                  311 10.8    0.217    0.243    0.832    0.997
 gaVxcgb_GC                         394  9.7    0.058    0.924    0.058    0.924
 cp_dbcsr_sm_fm_multiply            887  8.6    0.008    0.009    0.825    0.866
 qs_init_subsys                       1  2.0    0.001    0.001    0.796    0.796
 qs_env_setup                         1  3.0    0.000    0.000    0.794    0.794
 qs_env_rebuild_pw_env                2  3.5    0.000    0.000    0.794    0.794
 pw_env_rebuild                       1  5.0    0.000    0.000    0.794    0.794
 pw_grid_setup                        4  6.0    0.000    0.000    0.790    0.791
 pw_grid_setup_internal               4  7.0    0.011    0.011    0.790    0.791
 pw_scale                           508  9.5    0.731    0.770    0.731    0.770
 dbcsr_complete_redistribute       2802 10.6    0.048    0.056    0.677    0.718
 pw_grid_sort                         4  8.0    0.467    0.481    0.651    0.669
 qs_scf_new_mos                     169  5.0    0.001    0.001    0.650    0.660
 qs_scf_loop_do_ot                  169  6.0    0.001    0.001    0.649    0.660
 create_kernel_env                    1  6.0    0.000    0.000    0.568    0.654
 xc_prep_2nd_deriv                    1  7.0    0.000    0.000    0.568    0.654
 init_scf_run                         1  3.0    0.000    0.000    0.618    0.618
 scf_env_initial_rho_setup            1  4.0    0.000    0.000    0.618    0.618
 ot_scf_mini                        169  7.0    0.002    0.002    0.577    0.588
 tddfpt_construct_ground_state_       1  6.0    0.000    0.000    0.578    0.584
 copy_dbcsr_to_fm                   924  9.4    0.006    0.006    0.522    0.567
 calculate_vxc_atom                 169  8.0    0.036    0.118    0.560    0.566
 transfer_pw2rs_10                  197 12.0    0.147    0.162    0.458    0.547
 calculate_rho_atom                 620  9.4    0.269    0.500    0.269    0.500
 mp_irecv_dv                      43518 12.8    0.122    0.435    0.122    0.435
 make_m2s                          5064 10.8    0.023    0.024    0.383    0.415
 qs_energies_init_hamiltonians        1  3.0    0.000    0.000    0.411    0.411
 build_core_hamiltonian_matrix        1  4.0    0.000    0.000    0.410    0.410
 overlap_condnum                      1  5.0    0.000    0.000    0.410    0.410
 fft_wrap_pw1pw2_10                 508 11.3    0.016    0.018    0.343    0.407
 multiply_cannon                   2532 10.8    0.128    0.139    0.388    0.402
 mp_alltoall_i22                   3839 11.6    0.290    0.346    0.290    0.346
 copy_fm_to_dbcsr                  1876  9.6    0.004    0.004    0.295    0.332
 make_images                       5064 11.8    0.046    0.048    0.307    0.331
 cp_dbcsr_sm_fm_multiply_core       887  9.6    0.001    0.001    0.322    0.326
 mp_sum_dv                        11743  9.2    0.283    0.310    0.283    0.310
 parallel_gemm_fm                  1188  8.4    0.001    0.001    0.200    0.259
 parallel_gemm_fm_cosma            1188  9.4    0.199    0.258    0.199    0.258
 mp_alltoall_i11v                  9667 11.6    0.174    0.242    0.174    0.242
 ot_mini                            169  8.0    0.001    0.001    0.214    0.218
 powell_optimize                 140738 11.0    0.206    0.208    0.206    0.208
 grid_integrate_task_list           197 10.0    0.054    0.201    0.054    0.201
 sort_shells                          4  9.0    0.184    0.189    0.184    0.189
 qs_ot_get_derivative                57  9.0    0.000    0.000    0.183    0.185
 mp_isendrecv_dv                  19380 12.0    0.028    0.182    0.028    0.182
 tddfpt_orthonormalize_psi1_psi       8  6.9    0.006    0.007    0.172    0.172
 xc_2nd_deriv_of_r                  560 10.0    0.001    0.024    0.011    0.169
 calc_screening_functions             1 10.0    0.045    0.046    0.160    0.163
 multiply_cannon_loop              2532 11.8    0.029    0.029    0.154    0.158
 cp_dbcsr_plus_fm_fm_t              141  9.0    0.001    0.001    0.150    0.151
 vxc_of_r_new                       676  9.0    0.000    0.008    0.009    0.150
 qs_ot_get_orbitals                 169  8.0    0.000    0.000    0.143    0.150
 xc_pw_smooth                        57 10.0    0.000    0.000    0.136    0.147
 dbcsr_desymmetrize_deep            925 10.4    0.008    0.009    0.141    0.145
 tddfpt_orthogonalize_psi1_psi0       8  6.9    0.000    0.000    0.088    0.144
 make_images_sizes                 5064 12.8    0.003    0.003    0.128    0.143
 calc_pair_dist_radii                 1 10.0    0.050    0.050    0.140    0.141
 mp_alltoall_i44                   5064 13.8    0.125    0.140    0.125    0.140
 integrate_four_center_main         449 10.6    0.049    0.097    0.060    0.138
 mp_sum_l                         10857 10.4    0.113    0.132    0.113    0.132
 qs_ot_get_p                        170  8.0    0.000    0.001    0.125    0.131
 create_qs_kind_set                   1  2.0    0.000    0.000    0.130    0.131
 read_qs_kind                         2  3.0    0.062    0.077    0.130    0.131
 scf_post_calculation_gpw             1  3.0    0.000    0.000    0.130    0.130
 write_available_results              1  4.0    0.000    0.000    0.130    0.130
 write_mo_free_results                1  5.0    0.019    0.020    0.130    0.130
 offload_free_buffer                317  9.7    0.104    0.124    0.104    0.124
 qs_ot_get_derivative_taylor         57 10.0    0.001    0.001    0.113    0.114
 hybrid_alltoall_any               5989 13.4    0.020    0.022    0.036    0.111
 tddfpt_compute_residual_vects        6  7.0    0.000    0.000    0.111    0.111
 tddfpt_apply_energy_diff             7  8.0    0.000    0.000    0.105    0.105
 dbcsr_finalize                    7518 11.2    0.016    0.021    0.085    0.102
 mp_bcast_b_src                     201  6.5    0.043    0.099    0.043    0.099
 rs_gather_matrices                 197 10.0    0.002    0.004    0.014    0.098
 integrate_four_center_bin        37566 11.6    0.011    0.096    0.011    0.096
 cp_fm_diag_elpa                     29  8.0    0.000    0.000    0.093    0.093
 cp_fm_diag_elpa_base                29  9.0    0.062    0.090    0.087    0.090
 -------------------------------------------------------------------------------

 The number of warnings for this run is : 0
 
 -------------------------------------------------------------------------------
  **** **** ******  **  PROGRAM ENDED AT                 2025-07-01 18:03:11.834
 ***** ** ***  *** **   PROGRAM RAN ON                                  n2cn0441
 **    ****   ******    PROGRAM RAN BY                                  metdyn02
 ***** **    ** ** **   PROGRAM PROCESS ID                               1207225
  **** **  *******  **  PROGRAM STOPPED IN /scratch/hpc-prf-metdyn/metdyn02_Remi
                                           /10_MOL/05_MOL/W4-11+ALK/mgs/mini-SZV
                                           /TDDFT/1e-4
