SIRIUS 7.6.1, git hash: https://api.github.com/repos/electronic-structure/SIRIUS/git/ref/tags/v7.6.1
 DBCSR| CPU Multiplication driver                                           XSMM (U)
 DBCSR| Multrec recursion limit                                              512 (U)
 DBCSR| Multiplication stack size                                           1000 (D)
 DBCSR| Maximum elements for images                                    UNLIMITED (U)
 DBCSR| Multiplicative factor virtual images                                   1 (U)
 DBCSR| Use multiplication densification                                       T (D)
 DBCSR| Multiplication size stacks                                             3 (U)
 DBCSR| Use memory pool for CPU allocation                                     F (U)
 DBCSR| Number of 3D layers                                               SINGLE (U)
 DBCSR| Use MPI memory allocation                                              F (U)
 DBCSR| Use RMA algorithm                                                      F (U)
 DBCSR| Use Communication thread                                               T (U)
 DBCSR| Communication thread load                                             75 (D)
 DBCSR| MPI: My process id                                                     0
 DBCSR| MPI: Number of processes                                             128
 DBCSR| OMP: Current number of threads                                         4
 DBCSR| OMP: Max number of threads                                             4
 DBCSR| Split modifier for TAS multiplication algorithm                  1.0E+00 (U)


  **** **** ******  **  PROGRAM STARTED AT               2025-04-21 19:08:49.169
 ***** ** ***  *** **   PROGRAM STARTED ON                              n2cn1055
 **    ****   ******    PROGRAM STARTED BY                              metdyn02
 ***** **    ** ** **   PROGRAM PROCESS ID                               2072230
  **** **  *******  **  PROGRAM STARTED IN /scratch/hpc-prf-metdyn/metdyn02_Remi
                                           /10_MOL/05_MOL/W4-11+ALK/li3_me/DZVP/
                                           TDDFT/RILIM

 CP2K| version string:                 CP2K version 2025.1 (Development Version)
 CP2K| source code revision number:                                  git:4803c37
 CP2K| cp2kflags: omp libint fftw3 libxc libgrpp elpa parallel scalapack mpi_f08
 CP2K|             cosma xsmm plumed2 spglib sirius libvori libbqb libvdwxc hdf5
 CP2K| is freely available from                            https://www.cp2k.org/
 CP2K| Program compiled at                         Thu Apr 10 12:05:05 CEST 2025
 CP2K| Program compiled on                                              n2login1
 CP2K| Program compiled for                                                local
 CP2K| Data directory path    /opt/software/pc2/EB-SW/software/CP2K/2024.1-foss-
 CP2K| Input file name                                                    GW.inp

 GLOBAL| Force Environment number                                              1
 GLOBAL| Basis set file name            /scratch/hpc-prf-metdyn/metdyn02_Remi/BA
 GLOBAL| Potential file name            /pc2/groups/hpc-prf-metdyn/metdyn02_Remi
 GLOBAL| MM Potential file name                                     MM_POTENTIAL
 GLOBAL| Coordinate file name                                      __STD_INPUT__
 GLOBAL| Method name                                                        CP2K
 GLOBAL| Project name                                                       MoS2
 GLOBAL| Run type                                                         ENERGY
 GLOBAL| FFT library                                                       FFTW3
 GLOBAL| Diagonalization library                                            ELPA
 GLOBAL| DGEMM library                                                      BLAS
 GLOBAL| Minimum number of eigenvectors for ELPA usage                        16
 GLOBAL| Orthonormality check for eigenvectors                          DISABLED
 GLOBAL| Matrix multiplication library                                     COSMA
 GLOBAL| All-to-all communication in single precision                          F
 GLOBAL| FFTs using library dependent lengths                                  F
 GLOBAL| Grid backend                                                       AUTO
 GLOBAL| Global print level                                               MEDIUM
 GLOBAL| MPI I/O enabled                                                       T
 GLOBAL| Total number of message passing processes                           128
 GLOBAL| Number of threads for this process                                    4
 GLOBAL| This output is from process                                           0
 GLOBAL| OpenMP stack size per thread (OMP_STACKSIZE)                    default
 GLOBAL| CPU model name                          AMD EPYC 7763 64-Core Processor
 GLOBAL| CPUID                                                              1002

 MEMORY| system memory details [Kb]
 MEMORY|                        rank 0           min           max       average
 MEMORY| MemTotal            263899264     263899252     263899264     263899260
 MEMORY| MemFree             244158900     241703164     244640580     243653260
 MEMORY| Buffers                199904         75228        199904        149738
 MEMORY| Cached                6312780       6312780       8359460       6881204
 MEMORY| Slab                  2377356       2195444       2903892       2490998
 MEMORY| SReclaimable           427424        323628        993016        547219
 MEMORY| MemLikelyFree       251099008     251065300     251520384     251231421


 *** Fundamental physical constants (SI units) ***

 *** Literature: B. J. Mohr and B. N. Taylor,
 ***             CODATA recommended values of the fundamental physical
 ***             constants: 2006, Web Version 5.1
 ***             http://physics.nist.gov/constants

 Speed of light in vacuum [m/s]                             2.99792458000000E+08
 Magnetic constant or permeability of vacuum [N/A**2]       1.25663706143592E-06
 Electric constant or permittivity of vacuum [F/m]          8.85418781762039E-12
 Planck constant (h) [J*s]                                  6.62606896000000E-34
 Planck constant (h-bar) [J*s]                              1.05457162825177E-34
 Elementary charge [C]                                      1.60217648700000E-19
 Electron mass [kg]                                         9.10938215000000E-31
 Electron g factor [ ]                                     -2.00231930436220E+00
 Proton mass [kg]                                           1.67262163700000E-27
 Fine-structure constant                                    7.29735253760000E-03
 Rydberg constant [1/m]                                     1.09737315685270E+07
 Avogadro constant [1/mol]                                  6.02214179000000E+23
 Boltzmann constant [J/K]                                   1.38065040000000E-23
 Atomic mass unit [kg]                                      1.66053878200000E-27
 Bohr radius [m]                                            5.29177208590000E-11

 *** Conversion factors ***

 [u] -> [a.u.]                                              1.82288848426455E+03
 [Angstrom] -> [Bohr] = [a.u.]                              1.88972613288564E+00
 [a.u.] = [Bohr] -> [Angstrom]                              5.29177208590000E-01
 [a.u.] -> [s]                                              2.41888432650478E-17
 [a.u.] -> [fs]                                             2.41888432650478E-02
 [a.u.] -> [J]                                              4.35974393937059E-18
 [a.u.] -> [N]                                              8.23872205491840E-08
 [a.u.] -> [K]                                              3.15774647902944E+05
 [a.u.] -> [kJ/mol]                                         2.62549961709828E+03
 [a.u.] -> [kcal/mol]                                       6.27509468713739E+02
 [a.u.] -> [Pa]                                             2.94210107994716E+13
 [a.u.] -> [bar]                                            2.94210107994716E+08
 [a.u.] -> [atm]                                            2.90362800883016E+08
 [a.u.] -> [eV]                                             2.72113838565563E+01
 [a.u.] -> [Hz]                                             6.57968392072181E+15
 [a.u.] -> [1/cm] (wave numbers)                            2.19474631370540E+05
 [a.u./Bohr**2] -> [1/cm]                                   5.14048714338585E+03
 

 CELL_TOP| Volume [angstrom^3]:                                     27000.000000
 CELL_TOP| Vector a [angstrom    30.000     0.000     0.000   |a| =    30.000000
 CELL_TOP| Vector b [angstrom     0.000    30.000     0.000   |b| =    30.000000
 CELL_TOP| Vector c [angstrom     0.000     0.000    30.000   |c| =    30.000000
 CELL_TOP| Angle (b,c), alpha [degree]:                                90.000000
 CELL_TOP| Angle (a,c), beta  [degree]:                                90.000000
 CELL_TOP| Angle (a,b), gamma [degree]:                                90.000000
 CELL_TOP| Numerically orthorhombic:                                         YES
 CELL_TOP| Periodicity                                                      NONE

 GENERATE|  Preliminary Number of Bonds generated:                             0
 GENERATE|  Achieved consistency in connectivity generation.

 CELL| Volume [angstrom^3]:                                         27000.000000
 CELL| Vector a [angstrom]:      30.000     0.000     0.000   |a| =    30.000000
 CELL| Vector b [angstrom]:       0.000    30.000     0.000   |b| =    30.000000
 CELL| Vector c [angstrom]:       0.000     0.000    30.000   |c| =    30.000000
 CELL| Angle (b,c), alpha [degree]:                                    90.000000
 CELL| Angle (a,c), beta  [degree]:                                    90.000000
 CELL| Angle (a,b), gamma [degree]:                                    90.000000
 CELL| Numerically orthorhombic:                                             YES
 CELL| Periodicity                                                          NONE

 CELL_REF| Volume [angstrom^3]:                                     27000.000000
 CELL_REF| Vector a [angstrom    30.000     0.000     0.000   |a| =    30.000000
 CELL_REF| Vector b [angstrom     0.000    30.000     0.000   |b| =    30.000000
 CELL_REF| Vector c [angstrom     0.000     0.000    30.000   |c| =    30.000000
 CELL_REF| Angle (b,c), alpha [degree]:                                90.000000
 CELL_REF| Angle (a,c), beta  [degree]:                                90.000000
 CELL_REF| Angle (a,b), gamma [degree]:                                90.000000
 CELL_REF| Numerically orthorhombic:                                         YES
 CELL_REF| Periodicity                                                      NONE

 *******************************************************************************
 *******************************************************************************
 **                                                                           **
 **     #####                         ##              ##                      **
 **    ##   ##            ##          ##              ##                      **
 **   ##     ##                       ##            ######                    **
 **   ##     ##  ##   ##  ##   #####  ##  ##   ####   ##    #####    #####    **
 **   ##     ##  ##   ##  ##  ##      ## ##   ##      ##   ##   ##  ##   ##   **
 **   ##  ## ##  ##   ##  ##  ##      ####     ###    ##   ######   ######    **
 **    ##  ###   ##   ##  ##  ##      ## ##      ##   ##   ##       ##        **
 **     #######   #####   ##   #####  ##  ##  ####    ##    #####   ##        **
 **           ##                                                    ##        **
 **                                                                           **
 **                                                ... make the atoms dance   **
 **                                                                           **
 **            Copyright (C) by CP2K developers group (2000-2025)             **
 **                      J. Chem. Phys. 152, 194103 (2020)                    **
 **                                                                           **
 *******************************************************************************

 DFT| Spin restricted Kohn-Sham (RKS) calculation                            RKS
 DFT| Multiplicity                                                             1
 DFT| Number of spin states                                                    1
 DFT| Charge                                                                   0
 DFT| Self-interaction correction (SIC)                                       NO
 DFT| Cutoffs: density                                              1.000000E-10
 DFT|          gradient                                             1.000000E-10
 DFT|          tau                                                  1.000000E-10
 DFT|          cutoff_smoothing_range                               0.000000E+00
 DFT| XC density smoothing                                                  NONE
 DFT| XC derivatives                                                          PW

 FUNCTIONAL| PBE:
 FUNCTIONAL| J.P.Perdew, K.Burke, M.Ernzerhof, Phys. Rev. Letter, vol. 77, n 18,
 FUNCTIONAL|  pp. 3865-3868, (1996)sx=0.750sc=1.000{spin unpolarized}           


 QS| Method:                                                                GAPW
 QS| Density plane wave grid type                        NON-SPHERICAL FULLSPACE
 QS| Number of grid levels:                                                    4
 QS| Density cutoff [a.u.]:                                                250.0
 QS| Multi grid cutoff [a.u.]: 1) grid level                               250.0
 QS|                           2) grid level                                83.3
 QS|                           3) grid level                                27.8
 QS|                           4) grid level                                 9.3
 QS| Grid level progression factor:                                          3.0
 QS| Relative density cutoff [a.u.]:                                        50.0
 QS| Interaction thresholds: eps_pgf_orb:                                1.0E-12
 QS|                         eps_filter_matrix:                          0.0E+00
 QS|                         eps_core_charge:                            1.0E-14
 QS|                         eps_rho_gspace:                             1.0E-12
 QS|                         eps_rho_rspace:                             1.0E-12
 QS|                         eps_gvg_rspace:                             1.0E-06
 QS|                         eps_ppl:                                    1.0E-02
 QS|                         eps_ppnl:                                   1.0E-08
 QS| GAPW|      One center basis from orbital basis primitives
 QS| GAPW|                   eps_fit:                                    1.0E-04
 QS| GAPW|                   eps_iso:                                    1.0E-12
 QS| GAPW|                   eps_svd:                                    1.0E-08
 QS| GAPW|                   eps_cpc:                                    1.0E-12
 QS| GAPW|   atom-r-grid: quadrature:                                     GC_LOG
 QS| GAPW|      atom-s-grid:  max l :                                          6
 QS| GAPW|      max_l_rho0 :                                                   2


 ATOMIC KIND INFORMATION

  1. Atomic kind: c                                     Number of atoms:       1

     Orbital Basis Set                                        aug-DZVP-MOLOPT-ae

       Number of orbital shell sets:                                           2
       Number of orbital shells:                                              10
       Number of primitive Cartesian functions:                               13
       Number of Cartesian basis functions:                                   35
       Number of spherical basis functions:                                   30
       Norm type:                                                              2

       Normalised Cartesian orbitals:

                        Set   Shell   Orbital            Exponent    Coefficient

                          1       1    2px               0.050000       0.000000
                                                         0.096935       0.005344
                                                         0.300899       0.144116
                                                         0.937529       0.673511
                                                         4.145546       1.425967
                          1       1    2py               0.050000       0.000000
                                                         0.096935       0.005344
                                                         0.300899       0.144116
                                                         0.937529       0.673511
                                                         4.145546       1.425967
                          1       1    2pz               0.050000       0.000000
                                                         0.096935       0.005344
                                                         0.300899       0.144116
                                                         0.937529       0.673511
                                                         4.145546       1.425967

                          1       2    3px               0.050000       0.000000
                                                         0.096935       0.066903
                                                         0.300899       0.082631
                                                         0.937529      -0.414500
                                                         4.145546      -0.833488
                          1       2    3py               0.050000       0.000000
                                                         0.096935       0.066903
                                                         0.300899       0.082631
                                                         0.937529      -0.414500
                                                         4.145546      -0.833488
                          1       2    3pz               0.050000       0.000000
                                                         0.096935       0.066903
                                                         0.300899       0.082631
                                                         0.937529      -0.414500
                                                         4.145546      -0.833488

                          1       3    4px               0.050000       0.052477
                                                         0.096935      -0.149600
                                                         0.300899      -0.031452
                                                         0.937529       0.106528
                                                         4.145546       0.000000
                          1       3    4py               0.050000       0.052477
                                                         0.096935      -0.149600
                                                         0.300899      -0.031452
                                                         0.937529       0.106528
                                                         4.145546       0.000000
                          1       3    4pz               0.050000       0.052477
                                                         0.096935      -0.149600
                                                         0.300899      -0.031452
                                                         0.937529       0.106528
                                                         4.145546       0.000000

                          1       4    3dx2              0.050000       0.000000
                                                         0.096935       0.001258
                                                         0.300899       0.105504
                                                         0.937529       0.830801
                                                         4.145546       0.718979
                          1       4    3dxy              0.050000       0.000000
                                                         0.096935       0.002179
                                                         0.300899       0.182739
                                                         0.937529       1.438990
                                                         4.145546       1.245309
                          1       4    3dxz              0.050000       0.000000
                                                         0.096935       0.002179
                                                         0.300899       0.182739
                                                         0.937529       1.438990
                                                         4.145546       1.245309
                          1       4    3dy2              0.050000       0.000000
                                                         0.096935       0.001258
                                                         0.300899       0.105504
                                                         0.937529       0.830801
                                                         4.145546       0.718979
                          1       4    3dyz              0.050000       0.000000
                                                         0.096935       0.002179
                                                         0.300899       0.182739
                                                         0.937529       1.438990
                                                         4.145546       1.245309
                          1       4    3dz2              0.050000       0.000000
                                                         0.096935       0.001258
                                                         0.300899       0.105504
                                                         0.937529       0.830801
                                                         4.145546       0.718979

                          1       5    4dx2              0.050000      -0.011665
                                                         0.096935       0.057456
                                                         0.300899      -0.258169
                                                         0.937529       0.000000
                                                         4.145546       0.000000
                          1       5    4dxy              0.050000      -0.020204
                                                         0.096935       0.099516
                                                         0.300899      -0.447162
                                                         0.937529       0.000000
                                                         4.145546       0.000000
                          1       5    4dxz              0.050000      -0.020204
                                                         0.096935       0.099516
                                                         0.300899      -0.447162
                                                         0.937529       0.000000
                                                         4.145546       0.000000
                          1       5    4dy2              0.050000      -0.011665
                                                         0.096935       0.057456
                                                         0.300899      -0.258169
                                                         0.937529       0.000000
                                                         4.145546       0.000000
                          1       5    4dyz              0.050000      -0.020204
                                                         0.096935       0.099516
                                                         0.300899      -0.447162
                                                         0.937529       0.000000
                                                         4.145546       0.000000
                          1       5    4dz2              0.050000      -0.011665
                                                         0.096935       0.057456
                                                         0.300899      -0.258169
                                                         0.937529       0.000000
                                                         4.145546       0.000000

                          1       6    4fx3              0.050000      -0.000180
                                                         0.096935       0.008160
                                                         0.300899       0.004002
                                                         0.937529       0.000000
                                                         4.145546       0.000000
                          1       6    4fx2y             0.050000      -0.000402
                                                         0.096935       0.018246
                                                         0.300899       0.008949
                                                         0.937529       0.000000
                                                         4.145546       0.000000
                          1       6    4fx2z             0.050000      -0.000402
                                                         0.096935       0.018246
                                                         0.300899       0.008949
                                                         0.937529       0.000000
                                                         4.145546       0.000000
                          1       6    4fxy2             0.050000      -0.000402
                                                         0.096935       0.018246
                                                         0.300899       0.008949
                                                         0.937529       0.000000
                                                         4.145546       0.000000
                          1       6    4fxyz             0.050000      -0.000696
                                                         0.096935       0.031603
                                                         0.300899       0.015500
                                                         0.937529       0.000000
                                                         4.145546       0.000000
                          1       6    4fxz2             0.050000      -0.000402
                                                         0.096935       0.018246
                                                         0.300899       0.008949
                                                         0.937529       0.000000
                                                         4.145546       0.000000
                          1       6    4fy3              0.050000      -0.000180
                                                         0.096935       0.008160
                                                         0.300899       0.004002
                                                         0.937529       0.000000
                                                         4.145546       0.000000
                          1       6    4fy2z             0.050000      -0.000402
                                                         0.096935       0.018246
                                                         0.300899       0.008949
                                                         0.937529       0.000000
                                                         4.145546       0.000000
                          1       6    4fyz2             0.050000      -0.000402
                                                         0.096935       0.018246
                                                         0.300899       0.008949
                                                         0.937529       0.000000
                                                         4.145546       0.000000
                          1       6    4fz3              0.050000      -0.000180
                                                         0.096935       0.008160
                                                         0.300899       0.004002
                                                         0.937529       0.000000
                                                         4.145546       0.000000

                          2       1    1s                0.060000       0.000000
                                                         0.161278       0.024253
                                                         0.523772      -0.029268
                                                         3.176528       0.666384
                                                        10.501907       2.110671
                                                        40.805234       2.242010
                                                       186.270922       1.801845
                                                      1238.394264      -0.490536

                          2       2    2s                0.060000       0.000000
                                                         0.161278       0.080328
                                                         0.523772       0.279468
                                                         3.176528      -0.079506
                                                        10.501907      -0.033488
                                                        40.805234       0.350132
                                                       186.270922      -0.108171
                                                      1238.394264       0.147138

                          2       3    3s                0.060000       0.000000
                                                         0.161278       0.225687
                                                         0.523772      -0.382710
                                                         3.176528      -0.308205
                                                        10.501907      -0.974990
                                                        40.805234      -2.174132
                                                       186.270922       1.755878
                                                      1238.394264     -12.484315

                          2       4    4s                0.060000      -0.055653
                                                         0.161278      -0.019607
                                                         0.523772       0.500289
                                                         3.176528       0.067234
                                                        10.501907       0.000000
                                                        40.805234       0.000000
                                                       186.270922       0.000000
                                                      1238.394264       0.000000

     RI Auxiliary Basis Set             RI_aug-DZVP-MOLOPT-ae_N_RI_102_s_p_d_f_g

       Number of orbital shell sets:                                          24
       Number of orbital shells:                                              24
       Number of primitive Cartesian functions:                               24
       Number of Cartesian basis functions:                                  137
       Number of spherical basis functions:                                  102
       Norm type:                                                              2

       Normalised Cartesian orbitals:

                        Set   Shell   Orbital            Exponent    Coefficient

                          1       1    1s                0.176773       0.194299

                          2       1    8px               0.196807       0.186849
                          2       1    8py               0.196807       0.186849
                          2       1    8pz               0.196807       0.186849

                          3       1   18fx3              0.238963       0.058776
                          3       1   18fx2y             0.238963       0.131427
                          3       1   18fx2z             0.238963       0.131427
                          3       1   18fxy2             0.238963       0.131427
                          3       1   18fxyz             0.238963       0.227638
                          3       1   18fxz2             0.238963       0.131427
                          3       1   18fy3              0.238963       0.058776
                          3       1   18fy2z             0.238963       0.131427
                          3       1   18fyz2             0.238963       0.131427
                          3       1   18fz3              0.238963       0.058776

                          4       1    2s                0.282769       0.276365

                          5       1   13dx2              0.310173       0.212186
                          5       1   13dxy              0.310173       0.367516
                          5       1   13dxz              0.310173       0.367516
                          5       1   13dy2              0.310173       0.212186
                          5       1   13dyz              0.310173       0.367516
                          5       1   13dz2              0.310173       0.212186

                          6       1   22gx4              0.415454       0.099397
                          6       1   22gx3y             0.415454       0.262980
                          6       1   22gx3z             0.415454       0.262980
                          6       1   22gx2y2            0.415454       0.339506
                          6       1   22gx2yz            0.415454       0.588042
                          6       1   22gx2z2            0.415454       0.339506
                          6       1   22gxy3             0.415454       0.262980
                          6       1   22gxy2z            0.415454       0.588042
                          6       1   22gxyz2            0.415454       0.588042
                          6       1   22gxz3             0.415454       0.262980
                          6       1   22gy4              0.415454       0.099397
                          6       1   22gy3z             0.415454       0.262980
                          6       1   22gy2z2            0.415454       0.339506
                          6       1   22gyz3             0.415454       0.262980
                          6       1   22gz4              0.415454       0.099397

                          7       1   14dx2              0.475521       0.448184
                          7       1   14dxy              0.475521       0.776278
                          7       1   14dxz              0.475521       0.776278
                          7       1   14dy2              0.475521       0.448184
                          7       1   14dyz              0.475521       0.776278
                          7       1   14dz2              0.475521       0.448184

                          8       1    9px               0.478157       0.566765
                          8       1    9py               0.478157       0.566765
                          8       1    9pz               0.478157       0.566765

                          9       1   19fx3              0.615924       0.494755
                          9       1   19fx2y             0.615924       1.106306
                          9       1   19fx2z             0.615924       1.106306
                          9       1   19fxy2             0.615924       1.106306
                          9       1   19fxyz             0.615924       1.916178
                          9       1   19fxz2             0.615924       1.106306
                          9       1   19fy3              0.615924       0.494755
                          9       1   19fy2z             0.615924       1.106306
                          9       1   19fyz2             0.615924       1.106306
                          9       1   19fz3              0.615924       0.494755

                         10       1   23gx4              0.774118       0.550370
                         10       1   23gx3y             0.774118       1.456141
                         10       1   23gx3z             0.774118       1.456141
                         10       1   23gx2y2            0.774118       1.879871
                         10       1   23gx2yz            0.774118       3.256031
                         10       1   23gx2z2            0.774118       1.879871
                         10       1   23gxy3             0.774118       1.456141
                         10       1   23gxy2z            0.774118       3.256031
                         10       1   23gxyz2            0.774118       3.256031
                         10       1   23gxz3             0.774118       1.456141
                         10       1   23gy4              0.774118       0.550370
                         10       1   23gy3z             0.774118       1.456141
                         10       1   23gy2z2            0.774118       1.879871
                         10       1   23gyz3             0.774118       1.456141
                         10       1   23gz4              0.774118       0.550370

                         11       1    3s                0.856620       0.634602

                         12       1   15dx2              0.960745       1.534525
                         12       1   15dxy              0.960745       2.657876
                         12       1   15dxz              0.960745       2.657876
                         12       1   15dy2              0.960745       1.534525
                         12       1   15dyz              0.960745       2.657876
                         12       1   15dz2              0.960745       1.534525

                         13       1   10px               1.162821       1.721200
                         13       1   10py               1.162821       1.721200
                         13       1   10pz               1.162821       1.721200

                         14       1   20fx3              1.214659       2.280218
                         14       1   20fx2y             1.214659       5.098724
                         14       1   20fx2z             1.214659       5.098724
                         14       1   20fxy2             1.214659       5.098724
                         14       1   20fxyz             1.214659       8.831248
                         14       1   20fxz2             1.214659       5.098724
                         14       1   20fy3              1.214659       2.280218
                         14       1   20fy2z             1.214659       5.098724
                         14       1   20fyz2             1.214659       5.098724
                         14       1   20fz3              1.214659       2.280218

                         15       1   24gx4              1.356232       2.572490
                         15       1   24gx3y             1.356232       6.806169
                         15       1   24gx3z             1.356232       6.806169
                         15       1   24gx2y2            1.356232       8.786727
                         15       1   24gx2yz            1.356232      15.219057
                         15       1   24gx2z2            1.356232       8.786727
                         15       1   24gxy3             1.356232       6.806169
                         15       1   24gxy2z            1.356232      15.219057
                         15       1   24gxyz2            1.356232      15.219057
                         15       1   24gxz3             1.356232       6.806169
                         15       1   24gy4              1.356232       2.572490
                         15       1   24gy3z             1.356232       6.806169
                         15       1   24gy2z2            1.356232       8.786727
                         15       1   24gyz3             1.356232       6.806169
                         15       1   24gz4              1.356232       2.572490

                         16       1   16dx2              1.921522       5.161655
                         16       1   16dxy              1.921522       8.940249
                         16       1   16dxz              1.921522       8.940249
                         16       1   16dy2              1.921522       5.161655
                         16       1   16dyz              1.921522       8.940249
                         16       1   16dz2              1.921522       5.161655

                         17       1   21fx3              2.377719      10.335118
                         17       1   21fx2y             2.377719      23.110027
                         17       1   21fx2z             2.377719      23.110027
                         17       1   21fxy2             2.377719      23.110027
                         17       1   21fxyz             2.377719      40.027741
                         17       1   21fxz2             2.377719      23.110027
                         17       1   21fy3              2.377719      10.335118
                         17       1   21fy2z             2.377719      23.110027
                         17       1   21fyz2             2.377719      23.110027
                         17       1   21fz3              2.377719      10.335118

                         18       1    4s                2.987161       1.619400

                         19       1   17dx2              4.345203      21.524201
                         19       1   17dxy              4.345203      37.281010
                         19       1   17dxz              4.345203      37.281010
                         19       1   17dy2              4.345203      21.524201
                         19       1   17dyz              4.345203      37.281010
                         19       1   17dz2              4.345203      21.524201

                         20       1   11px               4.473684       9.274098
                         20       1   11py               4.473684       9.274098
                         20       1   11pz               4.473684       9.274098

                         21       1    5s                9.158863       3.752246

                         22       1   12px              16.195512      46.310923
                         22       1   12py              16.195512      46.310923
                         22       1   12pz              16.195512      46.310923

                         23       1    6s               27.492688       8.557029

                         24       1    7s               82.168156      19.450813

       Atomic covalent radius [Angstrom]:                                  0.770

       Atomic van der Waals radius [Angstrom]:                             1.700

     The atoms of this atomic kind are PAW atoms (GAPW):
       Hard Gaussian function radius:                                      1.512
       Rho0 radius:                                                        1.512
       Maximum GTO radius used for PAW projector construction:            24.566

     GAPW Soft Basis Set                                 aug-DZVP-MOLOPT-ae_soft

       Number of orbital shell sets:                                           2
       Number of orbital shells:                                              10
       Number of primitive Cartesian functions:                                9
       Number of Cartesian basis functions:                                   35
       Number of spherical basis functions:                                   30
       Norm type:                                                              2

       Normalised Cartesian orbitals:

                        Set   Shell   Orbital            Exponent    Coefficient

                          1       1    2px               0.050000       0.000000
                                                         0.096935       0.005344
                                                         0.300899       0.144116
                                                         0.937529       0.673511
                                                         4.145546       1.425967
                          1       1    2py               0.050000       0.000000
                                                         0.096935       0.005344
                                                         0.300899       0.144116
                                                         0.937529       0.673511
                                                         4.145546       1.425967
                          1       1    2pz               0.050000       0.000000
                                                         0.096935       0.005344
                                                         0.300899       0.144116
                                                         0.937529       0.673511
                                                         4.145546       1.425967

                          1       2    3px               0.050000       0.000000
                                                         0.096935       0.066903
                                                         0.300899       0.082631
                                                         0.937529      -0.414500
                                                         4.145546      -0.833488
                          1       2    3py               0.050000       0.000000
                                                         0.096935       0.066903
                                                         0.300899       0.082631
                                                         0.937529      -0.414500
                                                         4.145546      -0.833488
                          1       2    3pz               0.050000       0.000000
                                                         0.096935       0.066903
                                                         0.300899       0.082631
                                                         0.937529      -0.414500
                                                         4.145546      -0.833488

                          1       3    4px               0.050000       0.052477
                                                         0.096935      -0.149600
                                                         0.300899      -0.031452
                                                         0.937529       0.106528
                                                         4.145546       0.000000
                          1       3    4py               0.050000       0.052477
                                                         0.096935      -0.149600
                                                         0.300899      -0.031452
                                                         0.937529       0.106528
                                                         4.145546       0.000000
                          1       3    4pz               0.050000       0.052477
                                                         0.096935      -0.149600
                                                         0.300899      -0.031452
                                                         0.937529       0.106528
                                                         4.145546       0.000000

                          1       4    3dx2              0.050000       0.000000
                                                         0.096935       0.001258
                                                         0.300899       0.105504
                                                         0.937529       0.830801
                                                         4.145546       0.718979
                          1       4    3dxy              0.050000       0.000000
                                                         0.096935       0.002179
                                                         0.300899       0.182739
                                                         0.937529       1.438990
                                                         4.145546       1.245309
                          1       4    3dxz              0.050000       0.000000
                                                         0.096935       0.002179
                                                         0.300899       0.182739
                                                         0.937529       1.438990
                                                         4.145546       1.245309
                          1       4    3dy2              0.050000       0.000000
                                                         0.096935       0.001258
                                                         0.300899       0.105504
                                                         0.937529       0.830801
                                                         4.145546       0.718979
                          1       4    3dyz              0.050000       0.000000
                                                         0.096935       0.002179
                                                         0.300899       0.182739
                                                         0.937529       1.438990
                                                         4.145546       1.245309
                          1       4    3dz2              0.050000       0.000000
                                                         0.096935       0.001258
                                                         0.300899       0.105504
                                                         0.937529       0.830801
                                                         4.145546       0.718979

                          1       5    4dx2              0.050000      -0.011665
                                                         0.096935       0.057456
                                                         0.300899      -0.258169
                                                         0.937529       0.000000
                                                         4.145546       0.000000
                          1       5    4dxy              0.050000      -0.020204
                                                         0.096935       0.099516
                                                         0.300899      -0.447162
                                                         0.937529       0.000000
                                                         4.145546       0.000000
                          1       5    4dxz              0.050000      -0.020204
                                                         0.096935       0.099516
                                                         0.300899      -0.447162
                                                         0.937529       0.000000
                                                         4.145546       0.000000
                          1       5    4dy2              0.050000      -0.011665
                                                         0.096935       0.057456
                                                         0.300899      -0.258169
                                                         0.937529       0.000000
                                                         4.145546       0.000000
                          1       5    4dyz              0.050000      -0.020204
                                                         0.096935       0.099516
                                                         0.300899      -0.447162
                                                         0.937529       0.000000
                                                         4.145546       0.000000
                          1       5    4dz2              0.050000      -0.011665
                                                         0.096935       0.057456
                                                         0.300899      -0.258169
                                                         0.937529       0.000000
                                                         4.145546       0.000000

                          1       6    4fx3              0.050000      -0.000180
                                                         0.096935       0.008160
                                                         0.300899       0.004002
                                                         0.937529       0.000000
                                                         4.145546       0.000000
                          1       6    4fx2y             0.050000      -0.000402
                                                         0.096935       0.018246
                                                         0.300899       0.008949
                                                         0.937529       0.000000
                                                         4.145546       0.000000
                          1       6    4fx2z             0.050000      -0.000402
                                                         0.096935       0.018246
                                                         0.300899       0.008949
                                                         0.937529       0.000000
                                                         4.145546       0.000000
                          1       6    4fxy2             0.050000      -0.000402
                                                         0.096935       0.018246
                                                         0.300899       0.008949
                                                         0.937529       0.000000
                                                         4.145546       0.000000
                          1       6    4fxyz             0.050000      -0.000696
                                                         0.096935       0.031603
                                                         0.300899       0.015500
                                                         0.937529       0.000000
                                                         4.145546       0.000000
                          1       6    4fxz2             0.050000      -0.000402
                                                         0.096935       0.018246
                                                         0.300899       0.008949
                                                         0.937529       0.000000
                                                         4.145546       0.000000
                          1       6    4fy3              0.050000      -0.000180
                                                         0.096935       0.008160
                                                         0.300899       0.004002
                                                         0.937529       0.000000
                                                         4.145546       0.000000
                          1       6    4fy2z             0.050000      -0.000402
                                                         0.096935       0.018246
                                                         0.300899       0.008949
                                                         0.937529       0.000000
                                                         4.145546       0.000000
                          1       6    4fyz2             0.050000      -0.000402
                                                         0.096935       0.018246
                                                         0.300899       0.008949
                                                         0.937529       0.000000
                                                         4.145546       0.000000
                          1       6    4fz3              0.050000      -0.000180
                                                         0.096935       0.008160
                                                         0.300899       0.004002
                                                         0.937529       0.000000
                                                         4.145546       0.000000

                          2       1    1s                0.060000       0.000000
                                                         0.161278       0.024253
                                                         0.523772      -0.029268
                                                         3.176528       0.666384

                          2       2    2s                0.060000       0.000000
                                                         0.161278       0.080328
                                                         0.523772       0.279468
                                                         3.176528      -0.079506

                          2       3    3s                0.060000       0.000000
                                                         0.161278       0.225687
                                                         0.523772      -0.382710
                                                         3.176528      -0.308205

                          2       4    4s                0.060000      -0.055653
                                                         0.161278      -0.019607
                                                         0.523772       0.500289
                                                         3.176528       0.067234

     AE Potential information for                                            ALL

       Description:                                       All-electron potential
                                          Krack, Parrinello, PCCP 2, 2105 (2000)

       Gaussian exponent of the core charge distribution:               4.109048
       Electronic configuration (s p d ...):                           4   2   0

  2. Atomic kind: li                                    Number of atoms:       3

     Orbital Basis Set                                        aug-DZVP-MOLOPT-ae

       Number of orbital shell sets:                                           2
       Number of orbital shells:                                               8
       Number of primitive Cartesian functions:                               12
       Number of Cartesian basis functions:                                   19
       Number of spherical basis functions:                                   18
       Norm type:                                                              2

       Normalised Cartesian orbitals:

                        Set   Shell   Orbital            Exponent    Coefficient

                          1       1    1s              266.127173       0.337010
                                                        30.791085       0.645213
                                                         6.513909       0.731982
                                                         1.822796       0.505979
                                                         0.563425       0.128977
                                                         0.074745       0.017289
                                                         0.024840       0.003709

                          1       2    2s              266.127173       2.311979
                                                        30.791085      -4.206435
                                                         6.513909       2.484375
                                                         1.822796      -0.843164
                                                         0.563425      -0.005845
                                                         0.074745       0.170244
                                                         0.024840      -0.066060

                          1       3    3s              266.127173      -0.399777
                                                        30.791085       0.435493
                                                         6.513909      -0.539074
                                                         1.822796      -0.095833
                                                         0.563425      -0.093731
                                                         0.074745       0.056044
                                                         0.024840       0.024271

                          2       1    1s                0.029000       0.145227
                                                         0.048794      -0.168155
                                                         0.100000      -0.048428
                                                         0.223369       0.023674
                                                         1.213190       0.014068

                          2       2    2px               0.029000       0.000000
                                                         0.048794       0.017982
                                                         0.100000       0.000000
                                                         0.223369       0.120231
                                                         1.213190       0.214757
                          2       2    2py               0.029000       0.000000
                                                         0.048794       0.017982
                                                         0.100000       0.000000
                                                         0.223369       0.120231
                                                         1.213190       0.214757
                          2       2    2pz               0.029000       0.000000
                                                         0.048794       0.017982
                                                         0.100000       0.000000
                                                         0.223369       0.120231
                                                         1.213190       0.214757

                          2       3    3px               0.029000       0.000000
                                                         0.048794       0.029317
                                                         0.100000       0.000000
                                                         0.223369      -0.182080
                                                         1.213190      -0.558793
                          2       3    3py               0.029000       0.000000
                                                         0.048794       0.029317
                                                         0.100000       0.000000
                                                         0.223369      -0.182080
                                                         1.213190      -0.558793
                          2       3    3pz               0.029000       0.000000
                                                         0.048794       0.029317
                                                         0.100000       0.000000
                                                         0.223369      -0.182080
                                                         1.213190      -0.558793

                          2       4    4px               0.029000      -0.012291
                                                         0.048794      -0.011583
                                                         0.100000       0.000576
                                                         0.223369       0.038076
                                                         1.213190       0.156467
                          2       4    4py               0.029000      -0.012291
                                                         0.048794      -0.011583
                                                         0.100000       0.000576
                                                         0.223369       0.038076
                                                         1.213190       0.156467
                          2       4    4pz               0.029000      -0.012291
                                                         0.048794      -0.011583
                                                         0.100000       0.000576
                                                         0.223369       0.038076
                                                         1.213190       0.156467

                          2       5    3dx2              0.029000       0.000037
                                                         0.048794       0.005006
                                                         0.100000       0.006694
                                                         0.223369       0.036503
                                                         1.213190       0.046202
                          2       5    3dxy              0.029000       0.000064
                                                         0.048794       0.008671
                                                         0.100000       0.011594
                                                         0.223369       0.063226
                                                         1.213190       0.080024
                          2       5    3dxz              0.029000       0.000064
                                                         0.048794       0.008671
                                                         0.100000       0.011594
                                                         0.223369       0.063226
                                                         1.213190       0.080024
                          2       5    3dy2              0.029000       0.000037
                                                         0.048794       0.005006
                                                         0.100000       0.006694
                                                         0.223369       0.036503
                                                         1.213190       0.046202
                          2       5    3dyz              0.029000       0.000064
                                                         0.048794       0.008671
                                                         0.100000       0.011594
                                                         0.223369       0.063226
                                                         1.213190       0.080024
                          2       5    3dz2              0.029000       0.000037
                                                         0.048794       0.005006
                                                         0.100000       0.006694
                                                         0.223369       0.036503
                                                         1.213190       0.046202

     RI Auxiliary Basis Set             RI_aug-DZVP-MOLOPT-ae_N_RI_080_s_p_d_f_g

       Number of orbital shell sets:                                          18
       Number of orbital shells:                                              18
       Number of primitive Cartesian functions:                               18
       Number of Cartesian basis functions:                                  110
       Number of spherical basis functions:                                   80
       Norm type:                                                              2

       Normalised Cartesian orbitals:

                        Set   Shell   Orbital            Exponent    Coefficient

                          1       1   13fx3              0.114627       0.011255
                          1       1   13fx2y             0.114627       0.025167
                          1       1   13fx2z             0.114627       0.025167
                          1       1   13fxy2             0.114627       0.025167
                          1       1   13fxyz             0.114627       0.043591
                          1       1   13fxz2             0.114627       0.025167
                          1       1   13fy3              0.114627       0.011255
                          1       1   13fy2z             0.114627       0.025167
                          1       1   13fyz2             0.114627       0.025167
                          1       1   13fz3              0.114627       0.011255

                          2       1   10dx2              0.157260       0.064639
                          2       1   10dxy              0.157260       0.111958
                          2       1   10dxz              0.157260       0.111958
                          2       1   10dy2              0.157260       0.064639
                          2       1   10dyz              0.157260       0.111958
                          2       1   10dz2              0.157260       0.064639

                          3       1    1s                0.162193       0.182152

                          4       1   16gx4              0.162543       0.007527
                          4       1   16gx3y             0.162543       0.019913
                          4       1   16gx3z             0.162543       0.019913
                          4       1   16gx2y2            0.162543       0.025708
                          4       1   16gx2yz            0.162543       0.044528
                          4       1   16gx2z2            0.162543       0.025708
                          4       1   16gxy3             0.162543       0.019913
                          4       1   16gxy2z            0.162543       0.044528
                          4       1   16gxyz2            0.162543       0.044528
                          4       1   16gxz3             0.162543       0.019913
                          4       1   16gy4              0.162543       0.007527
                          4       1   16gy3z             0.162543       0.019913
                          4       1   16gy2z2            0.162543       0.025708
                          4       1   16gyz3             0.162543       0.019913
                          4       1   16gz4              0.162543       0.007527

                          5       1    6px               0.181211       0.168528
                          5       1    6py               0.181211       0.168528
                          5       1    6pz               0.181211       0.168528

                          6       1   17gx4              0.346558       0.060370
                          6       1   17gx3y             0.346558       0.159723
                          6       1   17gx3z             0.346558       0.159723
                          6       1   17gx2y2            0.346558       0.206201
                          6       1   17gx2yz            0.346558       0.357151
                          6       1   17gx2z2            0.346558       0.206201
                          6       1   17gxy3             0.346558       0.159723
                          6       1   17gxy2z            0.346558       0.357151
                          6       1   17gxyz2            0.346558       0.357151
                          6       1   17gxz3             0.346558       0.159723
                          6       1   17gy4              0.346558       0.060370
                          6       1   17gy3z             0.346558       0.159723
                          6       1   17gy2z2            0.346558       0.206201
                          6       1   17gyz3             0.346558       0.159723
                          6       1   17gz4              0.346558       0.060370

                          7       1   14fx3              0.378043       0.164977
                          7       1   14fx2y             0.378043       0.368900
                          7       1   14fx2z             0.378043       0.368900
                          7       1   14fxy2             0.378043       0.368900
                          7       1   14fxyz             0.378043       0.638953
                          7       1   14fxz2             0.378043       0.368900
                          7       1   14fy3              0.378043       0.164977
                          7       1   14fy2z             0.378043       0.368900
                          7       1   14fyz2             0.378043       0.368900
                          7       1   14fz3              0.378043       0.164977

                          8       1   11dx2              0.492654       0.476824
                          8       1   11dxy              0.492654       0.825883
                          8       1   11dxz              0.492654       0.825883
                          8       1   11dy2              0.492654       0.476824
                          8       1   11dyz              0.492654       0.825883
                          8       1   11dz2              0.492654       0.476824

                          9       1    7px               0.569185       0.704704
                          9       1    7py               0.569185       0.704704
                          9       1    7pz               0.569185       0.704704

                         10       1   18gx4              0.617979       0.296219
                         10       1   18gx3y             0.617979       0.783722
                         10       1   18gx3z             0.617979       0.783722
                         10       1   18gx2y2            0.617979       1.011781
                         10       1   18gx2yz            0.617979       1.752456
                         10       1   18gx2z2            0.617979       1.011781
                         10       1   18gxy3             0.617979       0.783722
                         10       1   18gxy2z            0.617979       1.752456
                         10       1   18gxyz2            0.617979       1.752456
                         10       1   18gxz3             0.617979       0.783722
                         10       1   18gy4              0.617979       0.296219
                         10       1   18gy3z             0.617979       0.783722
                         10       1   18gy2z2            0.617979       1.011781
                         10       1   18gyz3             0.617979       0.783722
                         10       1   18gz4              0.617979       0.296219

                         11       1    2s                0.655969       0.519484

                         12       1   15fx3              0.967398       1.366364
                         12       1   15fx2y             0.967398       3.055284
                         12       1   15fx2z             0.967398       3.055284
                         12       1   15fxy2             0.967398       3.055284
                         12       1   15fxyz             0.967398       5.291907
                         12       1   15fxz2             0.967398       3.055284
                         12       1   15fy3              0.967398       1.366364
                         12       1   15fy2z             0.967398       3.055284
                         12       1   15fyz2             0.967398       3.055284
                         12       1   15fz3              0.967398       1.366364

                         13       1    8px               1.429992       2.228985
                         13       1    8py               1.429992       2.228985
                         13       1    8pz               1.429992       2.228985

                         14       1   12dx2              2.258252       6.847169
                         14       1   12dxy              2.258252      11.859645
                         14       1   12dxz              2.258252      11.859645
                         14       1   12dy2              2.258252       6.847169
                         14       1   12dyz              2.258252      11.859645
                         14       1   12dz2              2.258252       6.847169

                         15       1    3s                2.894520       1.581585

                         16       1    9px               4.743793       9.979234
                         16       1    9py               4.743793       9.979234
                         16       1    9pz               4.743793       9.979234

                         17       1    4s               11.016211       4.309573

                         18       1    5s               33.192796       9.855825

       Atomic covalent radius [Angstrom]:                                  1.230

       Atomic van der Waals radius [Angstrom]:                             1.820

     The atoms of this atomic kind are PAW atoms (GAPW):
       Hard Gaussian function radius:                                      1.512
       Rho0 radius:                                                        1.512
       Maximum GTO radius used for PAW projector construction:            24.566

     GAPW Soft Basis Set                                 aug-DZVP-MOLOPT-ae_soft

       Number of orbital shell sets:                                           2
       Number of orbital shells:                                               8
       Number of primitive Cartesian functions:                                9
       Number of Cartesian basis functions:                                   19
       Number of spherical basis functions:                                   18
       Norm type:                                                              2

       Normalised Cartesian orbitals:

                        Set   Shell   Orbital            Exponent    Coefficient

                          1       1    1s                1.822796       0.505979
                                                         0.563425       0.128977
                                                         0.074745       0.017289
                                                         0.024840       0.003709

                          1       2    2s                1.822796      -0.843164
                                                         0.563425      -0.005845
                                                         0.074745       0.170244
                                                         0.024840      -0.066060

                          1       3    3s                1.822796      -0.095833
                                                         0.563425      -0.093731
                                                         0.074745       0.056044
                                                         0.024840       0.024271

                          2       1    1s                0.029000       0.145227
                                                         0.048794      -0.168155
                                                         0.100000      -0.048428
                                                         0.223369       0.023674
                                                         1.213190       0.014068

[...]

 M. Guidon, J. Hutter, J. VandeVondele.
 J. Chem. Theory Comput. 5, 3010-3021 (2009).
 Robust Periodic Hartree-Fock Exchange for Large-Scale Simulations Using 
 Gaussian Basis Sets.
 https://doi.org/10.1021/ct900494g

 M. Guidon, F. Schiffmann, J. Hutter, J. VandeVondele.
 J. Chem. Phys. 128, 214104 (2008).
 Ab initio molecular dynamics using hybrid density functionals.
 https://doi.org/10.1063/1.2931945

 L. Genovese, T. Deutsch, S. Goedecker.
 J. Chem. Phys. 127, 054704 (2007).
 Efficient and accurate three-dimensional Poisson solver for surface problems.
 https://doi.org/10.1063/1.2754685

 J. VandeVondele, J. Hutter.
 J. Chem. Phys. 127, 114105 (2007).
 Gaussian basis sets for accurate calculations on molecular systems in gas and 
 condensed phases.
 https://doi.org/10.1063/1.2770708

 L. Genovese, T. Deutsch, A. Neelov, S. Goedecker, G. Beylkin.
 J. Chem. Phys. 125, 074105 (2006).
 Efficient solution of Poisson's equation with free boundary conditions.
 https://doi.org/10.1063/1.2335442

 M. Iannuzzi, T. Chassaing, T. Wallman, J. Hutter.
 CHIMIA 59, 499-503 (2005).
 Ground and excited state density functional calculations with the Gaussian and 
 augmented-plane-wave method.
 https://doi.org/10.2533/000942905777676164

 M. Frigo, S. G. Johnson.
 Proc. IEEE 93, 216-231 (2005).
 The design and implementation of FFTW3.
 https://doi.org/10.1109/JPROC.2004.840301

 R. L. Martin.
 J. Chem. Phys. 118, 4775-4777 (2003).
 Natural transition orbitals.
 https://doi.org/10.1063/1.1558471

 M. Krack, M. Parrinello.
 Phys. Chem. Chem. Phys. 2, 2105-2112 (2000).
 All-electron ab-initio molecular dynamics.
 https://doi.org/10.1039/b001167n

 G. Lippert, J. Hutter, M. Parrinello.
 Theor. Chem. Acc. 103, 124-140 (1999).
 The Gaussian and augmented-plane-wave density functional method for ab initio 
 molecular dynamics simulations.
 https://doi.org/10.1007/s002140050523

 J. P. Perdew, K. Burke, M. Ernzerhof.
 Phys. Rev. Lett. 77, 3865-3868 (1996).
 Generalized gradient approximation made simple.
 https://doi.org/10.1103/PhysRevLett.77.3865


 -------------------------------------------------------------------------------
 -                                                                             -
 -                                T I M I N G                                  -
 -                                                                             -
 -------------------------------------------------------------------------------
 SUBROUTINE                       CALLS  ASD         SELF TIME        TOTAL TIME
                                MAXIMUM       AVERAGE  MAXIMUM  AVERAGE  MAXIMUM
 CP2K                                 1  1.0    0.014    0.033  373.793  373.797
 qs_energies                          1  2.0    0.000    0.000  373.520  373.525
 qs_energies_properties               1  3.0    0.000    0.000  222.144  222.146
 tddfpt                               1  4.0    0.000    0.000  222.144  222.146
 tddfpt_energies                      1  5.0    0.000    0.000  222.128  222.131
 tddfpt_davidson_solver               1  6.0    0.000    0.001  220.938  220.940
 tddfpt_compute_Aop_evects            6  7.0    0.000    0.000  220.340  220.343
 fhxc_kernel                          6  8.0    0.005    0.006  200.480  200.484
 scf_env_do_scf                       1  3.0    0.000    0.000  150.687  150.695
 scf_env_do_scf_inner_loop           71  4.0    0.001    0.004  150.687  150.694
 fft_wrap_pw1pw2                   3905 10.9    0.084    0.109  127.687  133.423
 fft_wrap_pw1pw2_250               2753 12.0    3.815    4.777  122.725  129.239
 fft3d_ps                          3905 12.9   26.142   31.971  111.716  119.565
 qs_ks_update_qs_env                 71  5.0    0.000    0.001  115.838  115.846
 rebuild_ks_matrix                   71  6.0    0.000    0.000  115.832  115.840
 qs_ks_build_kohn_sham_matrix        71  7.0    0.010    0.012  115.832  115.840
 pw_poisson_solve                   191  9.3    1.133    1.721  103.238  105.067
 tddfpt_apply_coulomb               120  9.0    0.002    0.003   83.607   85.420
 mp_alltoall_z22v                  3905 14.9   79.553   85.399   79.553   85.399
 ps_wavelet_solve                   191 10.3   16.737   20.931   72.658   74.301
 qs_rho_update_rho_low              193  7.5    0.002    0.003   64.842   64.860
 calculate_rho_elec                 193  8.5    0.377    0.477   64.207   64.210
 xc_pw_derive                      1149 11.0    0.010    0.012   53.499   55.132
 x_to_yz                           1794 13.7    2.874    4.696   44.418   50.004
 transfer_pw2rs                     956 10.8    0.019    0.027   44.481   46.338
 yz_to_x                           1727 14.2    2.542    2.908   40.514   43.054
 tddfpt_apply_xc_analytic           120  9.0    0.267    0.340   42.075   42.799
 mp_waitany                       44582 12.6   30.094   40.242   30.094   40.242
 density_rs2pw                      193  9.5    0.009    0.010   37.764   40.094
 integrate_v_rspace                 191  9.0    0.005    0.007   38.611   39.755
 mp_alltoall_d54                    191 11.3   23.783   38.704   23.783   38.704
 potential_pw2rs                    191 10.0    0.029    0.032   38.291   38.528
 mp_alltoall_d45                    192 11.3   32.181   37.973   32.181   37.973
 xc_pw_divergence                   191 10.6    0.005    0.006   35.146   35.863
 transfer_pw2rs_250                 383 11.6    4.258    4.787   27.305   29.475
 integrate_four_center              311  9.8   12.158   23.983   28.834   28.891
 grid_collocate_task_list           193  9.5   24.606   26.268   24.606   26.268
 qs_vxc_create                       71  8.0    0.001    0.001   26.162   26.162
 xc_vxc_pw_create                    71  9.0    0.236    0.332   26.161   26.161
 mp_sync                           1681 11.4   14.408   26.133   14.408   26.133
 xc_calc_2nd_deriv_analytical       840 10.1    1.421    1.842   24.651   24.969
 mp_waitall_1                    253382 13.3   10.304   24.195   10.304   24.195
 integrate_vhg0_rspace              191  9.3    0.120    0.175   22.364   22.720
 transfer_rs2pw                     965 10.5    0.030    0.037   21.557   22.595
 prepare_gapw_den                   192  8.6    0.003    0.003   19.950   20.909
 tddfpt_apply_hfx                     6  8.0    0.001    0.002   19.649   19.649
 tddft_hfx_matrix                   240  9.0    0.003    0.010   18.859   18.901
 put_rho0_on_grid                   192  9.6    0.391    0.502   17.282   18.251
 mp_isend_dm3                      7686 12.6    4.687   17.606    4.687   17.606
 sum_up_and_integrate                71  8.0    0.001    0.001   17.140   17.504
 mp_sum_d                          3866  7.5    7.158   16.501    7.158   16.501
 mp_sum_dm                         4131  9.7    3.705   14.015    3.705   14.015
 xc_rho_set_and_dset_create          72 10.0    0.269    0.388   12.676   13.915
 transfer_rs2pw_250                 386 11.5    4.629    5.065   12.033   13.203
 mp_irecv_dm3                      7686 12.6    1.164   12.620    1.164   12.620
 transfer_pw2rs_90                  191 12.0    0.742    0.892    7.279   12.283
 transfer_pw2rs_30                  191 12.0    2.117    2.217    9.070   10.783
 hfx_ks_matrix                       71  8.0    0.001    0.002    9.981   10.006
 mp_alltoall_d11v                 11176 11.5    6.093    9.827    6.093    9.827
 gspace_mixing                       70  5.0    0.137    0.173    9.307    9.312
 fft_wrap_pw1pw2_90                 384 11.7    0.105    0.196    3.959    7.763
 cp2k_distribution_to_z_slices      191 10.3    1.058    1.345    5.543    6.105
 pw_derive                         1722 11.7    5.046    5.665    5.046    5.665
 broyden_mixing                      70  6.0    5.060    5.141    5.321    5.337
 pw_gather_p                       1920 13.2    4.091    5.139    4.091    5.139
 transfer_rs2pw_90                  193 11.5    0.894    1.011    4.640    4.933
 rs_grid_zero                       958 11.8    4.218    4.594    4.218    4.594
 pw_scatter_p                      1985 12.7    4.007    4.554    4.007    4.554
 Vh_1c_gg_integrals                 191  9.3    0.018    0.327    1.421    4.542
 transfer_rs2pw_30                  193 11.5    1.266    1.424    3.956    4.299
 pw_copy                           2630 10.9    3.667    4.070    3.667    4.070
 pw_integral_ab_c1d_c1d_gs          191 10.3    0.717    0.853    1.666    3.971
 integrate_four_center_main         311 10.8    0.063    1.132    0.367    3.762
 mp_sendrecv_dv                   49022 12.5    3.285    3.584    3.285    3.584
 pw_poisson_set                     192 10.2    0.005    0.005    3.148    3.226
 pw_copy_to_array                  1920 13.2    2.253    3.116    2.253    3.116
 gaVxcgb_GC                         573  9.6    0.040    3.012    0.040    3.012
 calculate_xc_2nd_deriv_atom        120  9.0    0.039    0.585    0.091    2.755
 integrate_four_center_bin        53983 11.8    0.304    2.629    0.304    2.629
 xc_functional_eval                1218 10.9    0.001    0.003    1.600    2.607
 pbe_lda_eval                      1218 11.9    1.599    2.604    1.599    2.604
 calculate_rho_atom                 576  9.6    0.525    2.589    0.525    2.589
 mp_sum_dv                        11308  8.9    2.259    2.345    2.259    2.345
 mp_max_i                           689  4.4    1.002    2.146    1.002    2.146
 pw_axpy                           2038 10.6    1.705    2.035    1.705    2.035
 pw_copy_from_array                1985 12.7    1.601    2.014    1.601    2.014
 pw_zero                           1992 10.6    1.528    1.873    1.528    1.873
 cp_dbcsr_sm_fm_multiply            766  8.5    0.009    0.011    1.332    1.447
 calculate_vxc_atom                  71  8.0    0.026    0.176    1.397    1.397
 grid_integrate_task_list           191 10.0    0.149    1.201    0.149    1.201
 calc_screening_functions             1 10.0    0.750    0.973    0.967    1.195
 update_ks_atom                     191  8.6    0.020    0.038    0.958    1.171
 mp_bcast_dm                       2674  9.6    0.937    1.154    0.937    1.154
 transfer_rs2pw_10                  193 11.5    0.305    0.358    0.900    1.097
 rs_gather_matrices                 191 10.0    0.002    0.007    0.166    1.092
 transfer_pw2rs_10                  191 12.0    0.184    0.207    0.808    0.972
 dbcsr_complete_redistribute       2610 10.4    0.056    0.077    0.791    0.919
 fft_wrap_pw1pw2_30                 384 11.7    0.013    0.016    0.589    0.894
 dbcsr_multiply_generic            1077 10.2    0.025    0.027    0.844    0.872
 parallel_gemm_fm                  1159  8.2    0.001    0.001    0.649    0.773
 parallel_gemm_fm_cosma            1159  9.2    0.648    0.772    0.648    0.772
 integrate_four_center_getP         311 10.8    0.034    0.040    0.499    0.732
 prepare_dr1dr                      840 11.1    0.560    0.697    0.560    0.697
 copy_fm_to_dbcsr                  1749  9.5    0.004    0.006    0.527    0.666
 calculate_rho_atom_coeff           193  8.5    0.032    0.068    0.632    0.652
 mp_alltoall_i22                   3470 11.3    0.489    0.641    0.489    0.641
 qs_scf_new_mos                      71  5.0    0.001    0.001    0.617    0.622
 cp_dbcsr_sm_fm_multiply_core       766  9.5    0.001    0.001    0.573    0.603
 tddfpt_construct_ground_state_       1  6.0    0.000    0.000    0.561    0.566
 pw_poisson_rebuild                 191 10.3    0.000    0.000    0.499    0.519
 ps_wavelet_create                    1 10.0    0.000    0.000    0.499    0.519
 RS_z_slice_distribution              1 11.0    0.224    0.249    0.499    0.519
 mp_sum_l                          4285 10.2    0.385    0.480    0.385    0.480
 offload_free_buffer                199 10.0    0.262    0.468    0.262    0.468
 copy_dbcsr_to_fm                   859  9.2    0.006    0.007    0.428    0.458
 fft_wrap_pw1pw2_10                 384 11.7    0.003    0.004    0.331    0.430
 init_scf_run                         1  3.0    0.000    0.000    0.422    0.422
 eigensolver_symm                    71  6.0    0.005    0.006    0.417    0.421
 scf_env_initial_rho_setup            1  4.0    0.000    0.000    0.417    0.417
 tddfpt_orthonormalize_psi1_psi       7  6.9    0.005    0.005    0.335    0.413
 powell_optimize                 262378 11.0    0.377    0.394    0.377    0.394
 multiply_cannon                   1077 11.2    0.065    0.073    0.356    0.381
 cp_dbcsr_plus_fm_fm_t              191  8.3    0.002    0.002    0.368    0.373
 mp_rank_compare                   3905 13.9    0.318    0.349    0.318    0.349
 calc_pair_dist_radii                 1 10.0    0.150    0.171    0.309    0.331
 tddfpt_print_nto_analysis            1  6.0    0.001    0.002    0.325    0.331
 scale_and_distribute               382 11.3    0.231    0.328    0.231    0.328
 integrate_four_center_load         311 10.8    0.000    0.001    0.234    0.325
 hfx_load_balance                     1 11.0    0.000    0.000    0.234    0.324
 mp_isendrecv_dv                 127508 12.2    0.151    0.321    0.151    0.321
 hfx_load_balance_range               1 12.0    0.000    0.000    0.226    0.317
 mp_alltoall_z11v                   384 14.7    0.227    0.310    0.227    0.310
 cp_fm_diag_elpa                     99  7.2    0.000    0.000    0.289    0.295
 cp_fm_diag_elpa_base                99  8.2    0.275    0.278    0.281    0.282
 make_m2s                          2154 11.2    0.016    0.018    0.260    0.276
 multiply_cannon_loop              1077 12.2    0.046    0.047    0.226    0.264
 xc_2nd_deriv_of_r                  720 10.0    0.001    0.031    0.004    0.246
 pw_scale                           524  9.5    0.156    0.241    0.156    0.241
 integrate_four_center_dist_KS      311 10.8    0.032    0.037    0.232    0.235
 make_images                       2154 12.2    0.040    0.042    0.219    0.234
 create_kernel_env                    1  6.0    0.000    0.000    0.206    0.230
 xc_prep_2nd_deriv                    1  7.0    0.000    0.000    0.206    0.230
 tddfpt_compute_residual_vects        5  7.0    0.000    0.000    0.209    0.211
 tddfpt_apply_energy_diff             6  8.0    0.000    0.000    0.211    0.211
 cp_fm_trace_a1b1t1_aa             7470  8.0    0.013    0.014    0.150    0.184
 xz_to_yz                           193 13.5    0.006    0.008    0.125    0.168
 yz_to_xz                           191 14.0    0.008    0.016    0.116    0.160
 qs_energies_init_hamiltonians        1  3.0    0.000    0.000    0.152    0.152
 build_core_hamiltonian_matrix        1  4.0    0.000    0.000    0.149    0.149
 overlap_condnum                      1  5.0    0.000    0.000    0.148    0.149
 tddfpt_orthogonalize_psi1_psi0       7  6.9    0.000    0.000    0.073    0.139
 qs_init_subsys                       1  2.0    0.001    0.001    0.139    0.139
 cp_fm_geeig                         20  7.0    0.001    0.001    0.137    0.138
 arnoldi_conjugate_gradient           5  6.0    0.003    0.004    0.135    0.135
 rs_grid_create                     197 10.1    0.001    0.001    0.012    0.135
 offload_create_buffer              199 11.1    0.011    0.134    0.011    0.134
 qs_env_setup                         1  3.0    0.000    0.000    0.133    0.133
 qs_env_rebuild_pw_env                2  3.5    0.000    0.000    0.132    0.133
 pw_env_rebuild                       1  5.0    0.000    0.000    0.132    0.132
 mp_cart_create                    1437 10.5    0.106    0.120    0.107    0.123
 calculate_dm_sparse                 71  6.0    0.000    0.000    0.116    0.122
 make_images_sizes                 2154 13.2    0.002    0.002    0.110    0.122
 mp_alltoall_i44                   2154 14.2    0.109    0.120    0.109    0.120
 dbcsr_desymmetrize_deep            860 10.2    0.009    0.010    0.103    0.118
 mp_cart_sub                       1721 11.2    0.116    0.118    0.116    0.118
 calculate_rho0_atom                576  9.6    0.108    0.118    0.108    0.118
 pw_grid_setup                        4  6.0    0.000    0.000    0.115    0.115
 pw_grid_setup_internal               4  7.0    0.002    0.002    0.115    0.115
 scf_post_calculation_gpw             1  3.0    0.000    0.000    0.115    0.115
 write_available_results              1  4.0    0.000    0.000    0.115    0.115
 write_mo_free_results                1  5.0    0.003    0.004    0.114    0.115
 vxc_of_r_new                       426  9.0    0.000    0.009    0.002    0.102
 multiply_cannon_metrocomm3       17232 13.2    0.023    0.025    0.058    0.101
 dbcsr_finalize                    6973 11.3    0.014    0.020    0.079    0.100
 mp_isend_dv                      70283 13.4    0.071    0.086    0.071    0.086
 write_mo_set_to_restart             71  5.0    0.001    0.046    0.040    0.082
 dbcsr_sym_matrix_vector_mult      1125  7.0    0.008    0.008    0.071    0.081
 create_qs_kind_set                   1  2.0    0.000    0.000    0.080    0.080
 read_qs_kind                         3  3.0    0.021    0.035    0.080    0.080
 cube_transpose_2                   193 13.5    0.003    0.004    0.028    0.079
 pw_grid_sort                         4  8.0    0.055    0.056    0.076    0.078
 dbcsr_merge_all                   5642 12.3    0.034    0.053    0.050    0.067
 mp_irecv_dv                      69663 13.4    0.042    0.064    0.042    0.064
 calculate_hirshfeld_normalizat       1  6.0    0.001    0.005    0.057    0.064
 dbcsr_create_new                 22026 11.2    0.041    0.044    0.055    0.059
 parser_read_line                  8283  4.0    0.001    0.002    0.058    0.059
 parser_read_line_low                19  5.0    0.001    0.012    0.057    0.057
 broadcast_input_information         19  6.0    0.006    0.006    0.055    0.056
 mp_bcast_b_src                     170  7.9    0.053    0.056    0.053    0.056
 rs_scatter_matrices                193  9.5    0.001    0.003    0.006    0.056
 multiply_cannon_metrocomm4       16155 13.2    0.025    0.027    0.044    0.055
 cp_fm_write_unformatted             24  7.0    0.052    0.052    0.052    0.052
 external_control                    71  5.0    0.001    0.050    0.052    0.052
 multiply_cannon_metrocomm2       15078 13.2    0.023    0.026    0.040    0.048
 xc_pw_smooth                        71 10.0    0.000    0.000    0.033    0.045
 multiply_cannon_metrocomm1       17232 13.2    0.012    0.013    0.026    0.044
 cube_transpose_1                   191 14.0    0.003    0.014    0.016    0.044
 make_images_data                  2154 13.2    0.012    0.016    0.029    0.041
 mp_bcast_i_src                      76  7.0    0.034    0.041    0.034    0.041
 mp_allgather_i34                  1077 12.2    0.035    0.041    0.035    0.041
 dbcsr_add_d                       1741  7.1    0.001    0.001    0.008    0.040
 hirshfeld_integration                1  6.0    0.001    0.004    0.040    0.040
 dbcsr_add_anytype                 1741  8.1    0.001    0.006    0.007    0.039
 write_mo_set_low                     4  6.0    0.000    0.000    0.039    0.039
 cp_fm_syevd                         20  7.0    0.000    0.000    0.036    0.039
 -------------------------------------------------------------------------------

 The number of warnings for this run is : 1
 
 -------------------------------------------------------------------------------
  **** **** ******  **  PROGRAM ENDED AT                 2025-04-21 19:15:04.735
 ***** ** ***  *** **   PROGRAM RAN ON                                  n2cn1055
 **    ****   ******    PROGRAM RAN BY                                  metdyn02
 ***** **    ** ** **   PROGRAM PROCESS ID                               2072230
  **** **  *******  **  PROGRAM STOPPED IN /scratch/hpc-prf-metdyn/metdyn02_Remi
                                           /10_MOL/05_MOL/W4-11+ALK/li3_me/DZVP/
                                           TDDFT/RILIM
