 DBCSR| CPU Multiplication driver                                           BLAS (U)
 DBCSR| Multrec recursion limit                                              512 (U)
 DBCSR| Multiplication stack size                                           1000 (D)
 DBCSR| Maximum elements for images                                    UNLIMITED (U)
 DBCSR| Multiplicative factor virtual images                                   1 (U)
 DBCSR| Use multiplication densification                                       T (D)
 DBCSR| Multiplication size stacks                                             3 (U)
 DBCSR| Use memory pool for CPU allocation                                     F (U)
 DBCSR| Number of 3D layers                                               SINGLE (U)
 DBCSR| Use MPI memory allocation                                              F (U)
 DBCSR| Use RMA algorithm                                                      F (U)
 DBCSR| Use Communication thread                                               T (U)
 DBCSR| Communication thread load                                             75 (D)
 DBCSR| MPI: My process id                                                     0
 DBCSR| MPI: Number of processes                                             216
 DBCSR| OMP: Current number of threads                                         4
 DBCSR| OMP: Max number of threads                                             4
 DBCSR| Split modifier for TAS multiplication algorithm                  1.0E+00 (U)


  **** **** ******  **  PROGRAM STARTED AT               2025-03-11 05:43:57.299
 ***** ** ***  *** **   PROGRAM STARTED ON                          i02r11c05s11
 **    ****   ******    PROGRAM STARTED BY                               di38fab
 ***** **    ** ** **   PROGRAM PROCESS ID                               1574000
  **** **  *******  **  PROGRAM STARTED IN /hppfs/scratch/04/di38fab/05_MOL/aUKB
                                           qsEOTmq69kFe5R_nOg/5k_set_final_qzvp/
                                           OPUSAU/aug-cc-pVTZ

 CP2K| version string:                 CP2K version 2025.1 (Development Version)
 CP2K| source code revision number:                                  git:d2e611a
 CP2K| cp2kflags: omp libint fftw3 libxc parallel scalapack max_contr=4         
 CP2K| is freely available from                            https://www.cp2k.org/
 CP2K| Program compiled at                       Thu 06 Mar 2025 05:09:20 PM CET
 CP2K| Program compiled on                                               login02
 CP2K| Program compiled for                                        Supermuc-foss
 CP2K| Data directory path                  /hppfs/work/pn36zo/di38fab/cp2k/data
 CP2K| Input file name                                                    GW.inp

 GLOBAL| Force Environment number                                              1
 GLOBAL| Basis set file name            /hppfs/scratch/04/di38fab/04_TMD/BASIS_A
 GLOBAL| Potential file name            /hppfs/work/pn36zo/di38fab/cp2k/data/ALL
 GLOBAL| MM Potential file name                                     MM_POTENTIAL
 GLOBAL| Coordinate file name                                      __STD_INPUT__
 GLOBAL| Method name                                                        CP2K
 GLOBAL| Project name                                                       MoS2
 GLOBAL| Run type                                                         ENERGY
 GLOBAL| FFT library                                                       FFTW3
 GLOBAL| Diagonalization library                                       ScaLAPACK
 GLOBAL| DGEMM library                                                      BLAS
 GLOBAL| Orthonormality check for eigenvectors                          DISABLED
 GLOBAL| Matrix multiplication library                                 ScaLAPACK
 GLOBAL| All-to-all communication in single precision                          F
 GLOBAL| FFTs using library dependent lengths                                  F
 GLOBAL| Grid backend                                                       AUTO
 GLOBAL| Global print level                                               MEDIUM
 GLOBAL| MPI I/O enabled                                                       T
 GLOBAL| Total number of message passing processes                           216
 GLOBAL| Number of threads for this process                                    4
 GLOBAL| This output is from process                                           0
 GLOBAL| OpenMP stack size per thread (OMP_STACKSIZE)                    default
 GLOBAL| CPU model name             Intel(R) Xeon(R) Platinum 8174 CPU @ 3.10GHz

 MEMORY| system memory details [Kb]
 MEMORY|                        rank 0           min           max       average
 MEMORY| MemTotal             98436664      98436660      98436708      98436665
 MEMORY| MemFree              83984368      83639132      84190416      83980416
 MEMORY| Buffers                     0             0             0             0
 MEMORY| Cached                2402836       2400884       2630180       2445428
 MEMORY| Slab                  1227944       1227944       1259608       1241321
 MEMORY| SReclaimable           272152        263776        282148        273163
 MEMORY| MemLikelyFree        86659356      86346248      86899508      86699007


 *** Fundamental physical constants (SI units) ***

 *** Literature: B. J. Mohr and B. N. Taylor,
 ***             CODATA recommended values of the fundamental physical
 ***             constants: 2006, Web Version 5.1
 ***             http://physics.nist.gov/constants

 Speed of light in vacuum [m/s]                             2.99792458000000E+08
 Magnetic constant or permeability of vacuum [N/A**2]       1.25663706143592E-06
 Electric constant or permittivity of vacuum [F/m]          8.85418781762039E-12
 Planck constant (h) [J*s]                                  6.62606896000000E-34
 Planck constant (h-bar) [J*s]                              1.05457162825177E-34
 Elementary charge [C]                                      1.60217648700000E-19
 Electron mass [kg]                                         9.10938215000000E-31
 Electron g factor [ ]                                     -2.00231930436220E+00
 Proton mass [kg]                                           1.67262163700000E-27
 Fine-structure constant                                    7.29735253760000E-03
 Rydberg constant [1/m]                                     1.09737315685270E+07
 Avogadro constant [1/mol]                                  6.02214179000000E+23
 Boltzmann constant [J/K]                                   1.38065040000000E-23
 Atomic mass unit [kg]                                      1.66053878200000E-27
 Bohr radius [m]                                            5.29177208590000E-11

 *** Conversion factors ***

 [u] -> [a.u.]                                              1.82288848426455E+03
 [Angstrom] -> [Bohr] = [a.u.]                              1.88972613288564E+00
 [a.u.] = [Bohr] -> [Angstrom]                              5.29177208590000E-01
 [a.u.] -> [s]                                              2.41888432650478E-17
 [a.u.] -> [fs]                                             2.41888432650478E-02
 [a.u.] -> [J]                                              4.35974393937059E-18
 [a.u.] -> [N]                                              8.23872205491840E-08
 [a.u.] -> [K]                                              3.15774647902944E+05
 [a.u.] -> [kJ/mol]                                         2.62549961709828E+03
 [a.u.] -> [kcal/mol]                                       6.27509468713739E+02
 [a.u.] -> [Pa]                                             2.94210107994716E+13
 [a.u.] -> [bar]                                            2.94210107994716E+08
 [a.u.] -> [atm]                                            2.90362800883016E+08
 [a.u.] -> [eV]                                             2.72113838565563E+01
 [a.u.] -> [Hz]                                             6.57968392072181E+15
 [a.u.] -> [1/cm] (wave numbers)                            2.19474631370540E+05
 [a.u./Bohr**2] -> [1/cm]                                   5.14048714338585E+03
 

 CELL_TOP| Volume [angstrom^3]:                                     27000.000000
 CELL_TOP| Vector a [angstrom    30.000     0.000     0.000   |a| =    30.000000
 CELL_TOP| Vector b [angstrom     0.000    30.000     0.000   |b| =    30.000000
 CELL_TOP| Vector c [angstrom     0.000     0.000    30.000   |c| =    30.000000
 CELL_TOP| Angle (b,c), alpha [degree]:                                90.000000
 CELL_TOP| Angle (a,c), beta  [degree]:                                90.000000
 CELL_TOP| Angle (a,b), gamma [degree]:                                90.000000
 CELL_TOP| Numerically orthorhombic:                                         YES
 CELL_TOP| Periodicity                                                      NONE

 GENERATE|  Preliminary Number of Bonds generated:                             0
 GENERATE|  Achieved consistency in connectivity generation.

 CELL| Volume [angstrom^3]:                                         27000.000000
 CELL| Vector a [angstrom]:      30.000     0.000     0.000   |a| =    30.000000
 CELL| Vector b [angstrom]:       0.000    30.000     0.000   |b| =    30.000000
 CELL| Vector c [angstrom]:       0.000     0.000    30.000   |c| =    30.000000
 CELL| Angle (b,c), alpha [degree]:                                    90.000000
 CELL| Angle (a,c), beta  [degree]:                                    90.000000
 CELL| Angle (a,b), gamma [degree]:                                    90.000000
 CELL| Numerically orthorhombic:                                             YES
 CELL| Periodicity                                                          NONE

 CELL_REF| Volume [angstrom^3]:                                     27000.000000
 CELL_REF| Vector a [angstrom    30.000     0.000     0.000   |a| =    30.000000
 CELL_REF| Vector b [angstrom     0.000    30.000     0.000   |b| =    30.000000
 CELL_REF| Vector c [angstrom     0.000     0.000    30.000   |c| =    30.000000
 CELL_REF| Angle (b,c), alpha [degree]:                                90.000000
 CELL_REF| Angle (a,c), beta  [degree]:                                90.000000
 CELL_REF| Angle (a,b), gamma [degree]:                                90.000000
 CELL_REF| Numerically orthorhombic:                                         YES
 CELL_REF| Periodicity                                                      NONE

 *******************************************************************************
 *******************************************************************************
 **                                                                           **
 **     #####                         ##              ##                      **
 **    ##   ##            ##          ##              ##                      **
 **   ##     ##                       ##            ######                    **
 **   ##     ##  ##   ##  ##   #####  ##  ##   ####   ##    #####    #####    **
 **   ##     ##  ##   ##  ##  ##      ## ##   ##      ##   ##   ##  ##   ##   **
 **   ##  ## ##  ##   ##  ##  ##      ####     ###    ##   ######   ######    **
 **    ##  ###   ##   ##  ##  ##      ## ##      ##   ##   ##       ##        **
 **     #######   #####   ##   #####  ##  ##  ####    ##    #####   ##        **
 **           ##                                                    ##        **
 **                                                                           **
 **                                                ... make the atoms dance   **
 **                                                                           **
 **            Copyright (C) by CP2K developers group (2000-2025)             **
 **                      J. Chem. Phys. 152, 194103 (2020)                    **
 **                                                                           **
 *******************************************************************************

 DFT| Spin restricted Kohn-Sham (RKS) calculation                            RKS
 DFT| Multiplicity                                                             1
 DFT| Number of spin states                                                    1
 DFT| Charge                                                                   0
 DFT| Self-interaction correction (SIC)                                       NO
 DFT| Cutoffs: density                                              1.000000E-10
 DFT|          gradient                                             1.000000E-10
 DFT|          tau                                                  1.000000E-10
 DFT|          cutoff_smoothing_range                               0.000000E+00
 DFT| XC density smoothing                                                  NONE
 DFT| XC derivatives                                                          PW

 FUNCTIONAL| PBE:
 FUNCTIONAL| J.P.Perdew, K.Burke, M.Ernzerhof, Phys. Rev. Letter, vol. 77, n 18,
 FUNCTIONAL|  pp. 3865-3868, (1996)sx=0.750sc=1.000{spin unpolarized}           


 QS| Method:                                                                GAPW
 QS| Density plane wave grid type                        NON-SPHERICAL FULLSPACE
 QS| Number of grid levels:                                                    4
 QS| Density cutoff [a.u.]:                                                250.0
 QS| Multi grid cutoff [a.u.]: 1) grid level                               250.0
 QS|                           2) grid level                                83.3
 QS|                           3) grid level                                27.8
 QS|                           4) grid level                                 9.3
 QS| Grid level progression factor:                                          3.0
 QS| Relative density cutoff [a.u.]:                                        50.0
 QS| Interaction thresholds: eps_pgf_orb:                                1.0E-12
 QS|                         eps_filter_matrix:                          0.0E+00
 QS|                         eps_core_charge:                            1.0E-14
 QS|                         eps_rho_gspace:                             1.0E-12
 QS|                         eps_rho_rspace:                             1.0E-12
 QS|                         eps_gvg_rspace:                             1.0E-06
 QS|                         eps_ppl:                                    1.0E-02
 QS|                         eps_ppnl:                                   1.0E-08
 QS| GAPW|      One center basis from orbital basis primitives
 QS| GAPW|                   eps_fit:                                    1.0E-04
 QS| GAPW|                   eps_iso:                                    1.0E-12
 QS| GAPW|                   eps_svd:                                    1.0E-08
 QS| GAPW|                   eps_cpc:                                    1.0E-12
 QS| GAPW|   atom-r-grid: quadrature:                                     GC_LOG
 QS| GAPW|      atom-s-grid:  max l :                                          6
 QS| GAPW|      max_l_rho0 :                                                   2


 ATOMIC KIND INFORMATION

  1. Atomic kind: C                                     Number of atoms:       6

     Orbital Basis Set                                               aug-cc-pVTZ

       Number of orbital shell sets:                                           8
       Number of orbital shells:                                              14
       Number of primitive Cartesian functions:                               22
       Number of Cartesian basis functions:                                   55
       Number of spherical basis functions:                                   46
       Norm type:                                                              2

       Normalised Cartesian orbitals:

                        Set   Shell   Orbital            Exponent    Coefficient

                          1       1    1px               0.035690       0.022112
                          1       1    1py               0.035690       0.022112
                          1       1    1pz               0.035690       0.022112

                          2       1    1s                0.044020       0.068493

                          3       1    1dx2              0.100000       0.029269
                          3       1    1dxy              0.100000       0.050696
                          3       1    1dxz              0.100000       0.050696
                          3       1    1dy2              0.100000       0.029269
                          3       1    1dyz              0.100000       0.050696
                          3       1    1dz2              0.100000       0.029269

                          4       1    1px              18.710000       0.000000
                                                         4.133000       0.000000
                                                         1.200000       0.000000
                                                         0.382700       0.429055
                                                         0.120900       0.000000
                          4       1    1py              18.710000       0.000000
                                                         4.133000       0.000000
                                                         1.200000       0.000000
                                                         0.382700       0.429055
                                                         0.120900       0.000000
                          4       1    1pz              18.710000       0.000000
                                                         4.133000       0.000000
                                                         1.200000       0.000000
                                                         0.382700       0.429055
                                                         0.120900       0.000000

                          4       2    2px              18.710000       0.778253
                                                         4.133000       0.729662
                                                         1.200000       0.519563
                                                         0.382700       0.214960
                                                         0.120900       0.034896
                          4       2    2py              18.710000       0.778253
                                                         4.133000       0.729662
                                                         1.200000       0.519563
                                                         0.382700       0.214960
                                                         0.120900       0.034896
                          4       2    2pz              18.710000       0.778253
                                                         4.133000       0.729662
                                                         1.200000       0.519563
                                                         0.382700       0.214960
                                                         0.120900       0.034896

                          4       3    3px              18.710000       0.000000
                                                         4.133000       0.000000
                                                         1.200000       0.000000
                                                         0.382700       0.000000
                                                         0.120900       0.101619
                          4       3    3py              18.710000       0.000000
                                                         4.133000       0.000000
                                                         1.200000       0.000000
                                                         0.382700       0.000000
                                                         0.120900       0.101619
                          4       3    3pz              18.710000       0.000000
                                                         4.133000       0.000000
                                                         1.200000       0.000000
                                                         0.382700       0.000000
                                                         0.120900       0.101619

                          5       1    1s             8236.000000       0.327184
                                                      1235.000000       0.609945
                                                       280.800000       1.030914
                                                        79.270000       1.549802
                                                        25.590000       1.904111
                                                         8.997000       1.608326
                                                         3.319000       0.606601
                                                         0.905900       0.026060
                                                         0.364300      -0.003002
                                                         0.128500       0.000365

                          5       2    2s             8236.000000       0.000000
                                                      1235.000000       0.000000
                                                       280.800000       0.000000
                                                        79.270000       0.000000
                                                        25.590000       0.000000
                                                         8.997000       0.000000
                                                         3.319000       0.000000
                                                         0.905900       0.661790
                                                         0.364300       0.000000
                                                         0.128500       0.000000

                          5       3    3s             8236.000000      -0.069627
                                                      1235.000000      -0.130363
                                                       280.800000      -0.221954
                                                        79.270000      -0.343330
                                                        25.590000      -0.452153
                                                         8.997000      -0.469816
                                                         3.319000      -0.298547
                                                         0.905900       0.092903
                                                         0.364300       0.200079
                                                         0.128500       0.060480

                          5       4    4s             8236.000000       0.000000
                                                      1235.000000       0.000000
                                                       280.800000       0.000000
                                                        79.270000       0.000000
                                                        25.590000       0.000000
                                                         8.997000       0.000000
                                                         3.319000       0.000000
                                                         0.905900       0.000000
                                                         0.364300       0.000000
                                                         0.128500       0.152963

                          6       1    1fx3              0.268000       0.076078
                          6       1    1fx2y             0.268000       0.170115
                          6       1    1fx2z             0.268000       0.170115
                          6       1    1fxy2             0.268000       0.170115
                          6       1    1fxyz             0.268000       0.294648
                          6       1    1fxz2             0.268000       0.170115
                          6       1    1fy3              0.268000       0.076078
                          6       1    1fy2z             0.268000       0.170115
                          6       1    1fyz2             0.268000       0.170115
                          6       1    1fz3              0.268000       0.076078

                          7       1    1dx2              1.097000       1.935401
                                                         0.318000       0.000000
                          7       1    1dxy              1.097000       3.352214
                                                         0.318000       0.000000
                          7       1    1dxz              1.097000       3.352214
                                                         0.318000       0.000000
                          7       1    1dy2              1.097000       1.935401
                                                         0.318000       0.000000
                          7       1    1dyz              1.097000       3.352214
                                                         0.318000       0.000000
                          7       1    1dz2              1.097000       1.935401
                                                         0.318000       0.000000

                          7       2    2dx2              1.097000       0.000000
                                                         0.318000       0.221644
                          7       2    2dxy              1.097000       0.000000
                                                         0.318000       0.383899
                          7       2    2dxz              1.097000       0.000000
                                                         0.318000       0.383899
                          7       2    2dy2              1.097000       0.000000
                                                         0.318000       0.221644
                          7       2    2dyz              1.097000       0.000000
                                                         0.318000       0.383899
                          7       2    2dz2              1.097000       0.000000
                                                         0.318000       0.221644

                          8       1    1fx3              0.761000       0.796288
                          8       1    1fx2y             0.761000       1.780553
                          8       1    1fx2z             0.761000       1.780553
                          8       1    1fxy2             0.761000       1.780553
                          8       1    1fxyz             0.761000       3.084008
                          8       1    1fxz2             0.761000       1.780553
                          8       1    1fy3              0.761000       0.796288
                          8       1    1fy2z             0.761000       1.780553
                          8       1    1fyz2             0.761000       1.780553
                          8       1    1fz3              0.761000       0.796288

     RI Auxiliary Basis Set                                    aug-cc-pVTZ-OPTRI

       Number of orbital shell sets:                                          18
       Number of orbital shells:                                              18
       Number of primitive Cartesian functions:                               18
       Number of Cartesian basis functions:                                  103
       Number of spherical basis functions:                                   78
       Norm type:                                                              2

       Normalised Cartesian orbitals:

                        Set   Shell   Orbital            Exponent    Coefficient

                          1       1    1px               0.053629       0.036787
                          1       1    1py               0.053629       0.036787
                          1       1    1pz               0.053629       0.036787

                          2       1    1s                0.071296       0.098335

                          3       1    1dx2              0.149738       0.059325
                          3       1    1dxy              0.149738       0.102755
                          3       1    1dxz              0.149738       0.102755
                          3       1    1dy2              0.149738       0.059325
                          3       1    1dyz              0.149738       0.102755
                          3       1    1dz2              0.149738       0.059325

                          4       1    1px               0.180551       0.167761
                          4       1    1py               0.180551       0.167761
                          4       1    1pz               0.180551       0.167761

                          5       1    1s                0.347160       0.322335

                          6       1    1dx2              0.499205       0.487975
                          6       1    1dxy              0.499205       0.845198
                          6       1    1dxz              0.499205       0.845198
                          6       1    1dy2              0.499205       0.487975
                          6       1    1dyz              0.499205       0.845198
                          6       1    1dz2              0.499205       0.487975

                          7       1    1fx3              0.506969       0.319273
                          7       1    1fx2y             0.506969       0.713917
                          7       1    1fx2z             0.506969       0.713917
                          7       1    1fxy2             0.506969       0.713917
                          7       1    1fxyz             0.506969       1.236540
                          7       1    1fxz2             0.506969       0.713917
                          7       1    1fy3              0.506969       0.319273
                          7       1    1fy2z             0.506969       0.713917
                          7       1    1fyz2             0.506969       0.713917
                          7       1    1fz3              0.506969       0.319273

                          8       1    1px               0.571981       0.709034
                          8       1    1py               0.571981       0.709034
                          8       1    1pz               0.571981       0.709034

                          9       1    1gx4              0.583231       0.252637
                          9       1    1gx3y             0.583231       0.668415
                          9       1    1gx3z             0.583231       0.668415
                          9       1    1gx2y2            0.583231       0.862920
                          9       1    1gx2yz            0.583231       1.494621
                          9       1    1gx2z2            0.583231       0.862920
                          9       1    1gxy3             0.583231       0.668415
                          9       1    1gxy2z            0.583231       1.494621
                          9       1    1gxyz2            0.583231       1.494621
                          9       1    1gxz3             0.583231       0.668415
                          9       1    1gy4              0.583231       0.252637
                          9       1    1gy3z             0.583231       0.668415
                          9       1    1gy2z2            0.583231       0.862920
                          9       1    1gyz3             0.583231       0.668415
                          9       1    1gz4              0.583231       0.252637

                         10       1    1px               1.079380       1.568224
                         10       1    1py               1.079380       1.568224
                         10       1    1pz               1.079380       1.568224

                         11       1    1s                1.350899       0.893053

                         12       1    1fx3              1.360408       2.942457
                         12       1    1fx2y             1.360408       6.579533
                         12       1    1fx2z             1.360408       6.579533
                         12       1    1fxy2             1.360408       6.579533
                         12       1    1fxyz             1.360408      11.396086
                         12       1    1fxz2             1.360408       6.579533
                         12       1    1fy3              1.360408       2.942457
                         12       1    1fy2z             1.360408       6.579533
                         12       1    1fyz2             1.360408       6.579533
                         12       1    1fz3              1.360408       2.942457

                         13       1    1gx4              1.603084       4.074414
                         13       1    1gx3y             1.603084      10.779887
                         13       1    1gx3z             1.603084      10.779887
                         13       1    1gx2y2            1.603084      13.916774
                         13       1    1gx2yz            1.603084      24.104560
                         13       1    1gx2z2            1.603084      13.916774
                         13       1    1gxy3             1.603084      10.779887
                         13       1    1gxy2z            1.603084      24.104560
                         13       1    1gxyz2            1.603084      24.104560
                         13       1    1gxz3             1.603084      10.779887
                         13       1    1gy4              1.603084       4.074414
                         13       1    1gy3z             1.603084      10.779887
                         13       1    1gy2z2            1.603084      13.916774
                         13       1    1gyz3             1.603084      10.779887
                         13       1    1gz4              1.603084       4.074414

                         14       1    1dx2              2.042078       5.741641
                         14       1    1dxy              2.042078       9.944814
                         14       1    1dxz              2.042078       9.944814
                         14       1    1dy2              2.042078       5.741641
                         14       1    1dyz              2.042078       9.944814
                         14       1    1dz2              2.042078       5.741641

                         15       1    1px               3.363437       6.492608
                         15       1    1py               3.363437       6.492608
                         15       1    1pz               3.363437       6.492608

                         16       1    1fx3              3.489720      24.503790
                         16       1    1fx2y             3.489720      54.792140
                         16       1    1fx2z             3.489720      54.792140
                         16       1    1fxy2             3.489720      54.792140
                         16       1    1fxyz             3.489720      94.902770
                         16       1    1fxz2             3.489720      54.792140
                         16       1    1fy3              3.489720      24.503790
                         16       1    1fy2z             3.489720      54.792140
                         16       1    1fyz2             3.489720      54.792140
                         16       1    1fz3              3.489720      24.503790

                         17       1    1s                3.964205       2.002291

                         18       1    1dx2              4.948435      27.022668
                         18       1    1dxy              4.948435      46.804634
                         18       1    1dxz              4.948435      46.804634
                         18       1    1dy2              4.948435      27.022668
                         18       1    1dyz              4.948435      46.804634
                         18       1    1dz2              4.948435      27.022668

       Atomic covalent radius [Angstrom]:                                  0.770

       Atomic van der Waals radius [Angstrom]:                             1.700

     The atoms of this atomic kind are PAW atoms (GAPW):
       Hard Gaussian function radius:                                      1.512
       Rho0 radius:                                                        1.512
       Maximum GTO radius used for PAW projector construction:            24.566

     GAPW Soft Basis Set                                        aug-cc-pVTZ_soft

       Number of orbital shell sets:                                           8
       Number of orbital shells:                                              14
       Number of primitive Cartesian functions:                               15
       Number of Cartesian basis functions:                                   55
       Number of spherical basis functions:                                   46
       Norm type:                                                              2

       Normalised Cartesian orbitals:

                        Set   Shell   Orbital            Exponent    Coefficient

                          1       1    1px               0.035690       0.022112
                          1       1    1py               0.035690       0.022112
                          1       1    1pz               0.035690       0.022112

                          2       1    1s                0.044020       0.068493

                          3       1    1dx2              0.100000       0.029269
                          3       1    1dxy              0.100000       0.050696
                          3       1    1dxz              0.100000       0.050696
                          3       1    1dy2              0.100000       0.029269
                          3       1    1dyz              0.100000       0.050696
                          3       1    1dz2              0.100000       0.029269

                          4       1    1px               4.133000       0.000000
                                                         1.200000       0.000000
                                                         0.382700       0.429055
                                                         0.120900       0.000000
                          4       1    1py               4.133000       0.000000
                                                         1.200000       0.000000
                                                         0.382700       0.429055
                                                         0.120900       0.000000
                          4       1    1pz               4.133000       0.000000
                                                         1.200000       0.000000
                                                         0.382700       0.429055
                                                         0.120900       0.000000

                          4       2    2px               4.133000       0.729662
                                                         1.200000       0.519563
                                                         0.382700       0.214960
                                                         0.120900       0.034896
                          4       2    2py               4.133000       0.729662
                                                         1.200000       0.519563
                                                         0.382700       0.214960
                                                         0.120900       0.034896
                          4       2    2pz               4.133000       0.729662
                                                         1.200000       0.519563
                                                         0.382700       0.214960
                                                         0.120900       0.034896

                          4       3    3px               4.133000       0.000000
                                                         1.200000       0.000000
                                                         0.382700       0.000000
                                                         0.120900       0.101619
                          4       3    3py               4.133000       0.000000
                                                         1.200000       0.000000
                                                         0.382700       0.000000
                                                         0.120900       0.101619
                          4       3    3pz               4.133000       0.000000
                                                         1.200000       0.000000
                                                         0.382700       0.000000
                                                         0.120900       0.101619

                          5       1    1s                3.319000       0.606601
                                                         0.905900       0.026060
                                                         0.364300      -0.003002
                                                         0.128500       0.000365

                          5       2    2s                3.319000       0.000000
                                                         0.905900       0.661790
                                                         0.364300       0.000000
                                                         0.128500       0.000000

                          5       3    3s                3.319000      -0.298547
                                                         0.905900       0.092903
                                                         0.364300       0.200079
                                                         0.128500       0.060480

                          5       4    4s                3.319000       0.000000
                                                         0.905900       0.000000
                                                         0.364300       0.000000
                                                         0.128500       0.152963

                          6       1    1fx3              0.268000       0.076078
                          6       1    1fx2y             0.268000       0.170115
                          6       1    1fx2z             0.268000       0.170115
                          6       1    1fxy2             0.268000       0.170115
                          6       1    1fxyz             0.268000       0.294648
                          6       1    1fxz2             0.268000       0.170115
                          6       1    1fy3              0.268000       0.076078
                          6       1    1fy2z             0.268000       0.170115
                          6       1    1fyz2             0.268000       0.170115
                          6       1    1fz3              0.268000       0.076078

                          7       1    1dx2              1.097000       1.935401
                                                         0.318000       0.000000
                          7       1    1dxy              1.097000       3.352214
                                                         0.318000       0.000000
                          7       1    1dxz              1.097000       3.352214
                                                         0.318000       0.000000
                          7       1    1dy2              1.097000       1.935401
                                                         0.318000       0.000000
                          7       1    1dyz              1.097000       3.352214
                                                         0.318000       0.000000
                          7       1    1dz2              1.097000       1.935401
                                                         0.318000       0.000000

                          7       2    2dx2              1.097000       0.000000
                                                         0.318000       0.221644
                          7       2    2dxy              1.097000       0.000000
                                                         0.318000       0.383899
                          7       2    2dxz              1.097000       0.000000
                                                         0.318000       0.383899
                          7       2    2dy2              1.097000       0.000000
                                                         0.318000       0.221644
                          7       2    2dyz              1.097000       0.000000
                                                         0.318000       0.383899
                          7       2    2dz2              1.097000       0.000000
                                                         0.318000       0.221644

                          8       1    1fx3              0.761000       0.796288
                          8       1    1fx2y             0.761000       1.780553
                          8       1    1fx2z             0.761000       1.780553
                          8       1    1fxy2             0.761000       1.780553
                          8       1    1fxyz             0.761000       3.084008
                          8       1    1fxz2             0.761000       1.780553
                          8       1    1fy3              0.761000       0.796288
                          8       1    1fy2z             0.761000       1.780553
                          8       1    1fyz2             0.761000       1.780553
                          8       1    1fz3              0.761000       0.796288

     AE Potential information for                                            ALL

       Description:                                       All-electron potential
                                          Krack, Parrinello, PCCP 2, 2105 (2000)

       Gaussian exponent of the core charge distribution:               4.109048
       Electronic configuration (s p d ...):                           4   2   0

  2. Atomic kind: O                                     Number of atoms:       4

     Orbital Basis Set                                               aug-cc-pVTZ

       Number of orbital shell sets:                                           8
       Number of orbital shells:                                              14
       Number of primitive Cartesian functions:                               22
       Number of Cartesian basis functions:                                   55
       Number of spherical basis functions:                                   46
       Norm type:                                                              2

       Normalised Cartesian orbitals:

                        Set   Shell   Orbital            Exponent    Coefficient

                          1       1    1px               0.059740       0.042099
                          1       1    1py               0.059740       0.042099
                          1       1    1pz               0.059740       0.042099

                          2       1    1s                0.073760       0.100873

                          3       1    1px              34.460000       0.000000
                                                         7.749000       0.000000
                                                         2.280000       0.000000
                                                         0.715600       0.938162
                                                         0.214000       0.000000
                          3       1    1py              34.460000       0.000000
                                                         7.749000       0.000000
                                                         2.280000       0.000000
                                                         0.715600       0.938162
                                                         0.214000       0.000000
                          3       1    1pz              34.460000       0.000000
                                                         7.749000       0.000000
                                                         2.280000       0.000000
                                                         0.715600       0.938162
                                                         0.214000       0.000000

                          3       2    2px              34.460000       1.895593
                                                         7.749000       1.838088
                                                         2.280000       1.239963
                                                         0.715600       0.460662
                                                         0.214000       0.069780
                          3       2    2py              34.460000       1.895593
                                                         7.749000       1.838088
                                                         2.280000       1.239963
                                                         0.715600       0.460662
                                                         0.214000       0.069780
                          3       2    2pz              34.460000       1.895593
                                                         7.749000       1.838088
                                                         2.280000       1.239963
                                                         0.715600       0.460662
                                                         0.214000       0.069780

                          3       3    3px              34.460000       0.000000
                                                         7.749000       0.000000
                                                         2.280000       0.000000
                                                         0.715600       0.000000
                                                         0.214000       0.207471
                          3       3    3py              34.460000       0.000000
                                                         7.749000       0.000000
                                                         2.280000       0.000000
                                                         0.715600       0.000000
                                                         0.214000       0.207471
                          3       3    3pz              34.460000       0.000000
                                                         7.749000       0.000000
                                                         2.280000       0.000000
                                                         0.715600       0.000000
                                                         0.214000       0.207471

                          4       1    1dx2              0.214000       0.110824
                          4       1    1dxy              0.214000       0.191953
                          4       1    1dxz              0.214000       0.191953
                          4       1    1dy2              0.214000       0.110824
                          4       1    1dyz              0.214000       0.191953
                          4       1    1dz2              0.214000       0.110824

                          5       1    1s            15330.000000       0.498804
                                                      2299.000000       0.929707
                                                       522.400000       1.576475
                                                       147.300000       2.386068
                                                        47.550000       2.977116
                                                        16.760000       2.556946
                                                         6.207000       0.981661
                                                         1.752000       0.046374
                                                         0.688200      -0.004391
                                                         0.238400       0.000579

                          5       2    2s            15330.000000       0.000000
                                                      2299.000000       0.000000
                                                       522.400000       0.000000
                                                       147.300000       0.000000
                                                        47.550000       0.000000
                                                        16.760000       0.000000
                                                         6.207000       0.000000
                                                         1.752000       1.085327
                                                         0.688200       0.000000
                                                         0.238400       0.000000

                          5       3    3s            15330.000000      -0.112918
                                                      2299.000000      -0.211781
                                                       522.400000      -0.361041
                                                       147.300000      -0.564236
                                                        47.550000      -0.754491
                                                        16.760000      -0.805621
                                                         6.207000      -0.492541
                                                         1.752000       0.174666
                                                         0.688200       0.324949
                                                         0.238400       0.092100

                          5       4    4s            15330.000000       0.000000
                                                      2299.000000       0.000000
                                                       522.400000       0.000000
                                                       147.300000       0.000000
                                                        47.550000       0.000000
                                                        16.760000       0.000000
                                                         6.207000       0.000000
                                                         1.752000       0.000000
                                                         0.688200       0.000000
                                                         0.238400       0.243159

                          6       1    1fx3              0.500000       0.309483
                          6       1    1fx2y             0.500000       0.692025
                          6       1    1fx2z             0.500000       0.692025
                          6       1    1fxy2             0.500000       0.692025
                          6       1    1fxyz             0.500000       1.198623
                          6       1    1fxz2             0.500000       0.692025
                          6       1    1fy3              0.500000       0.309483
                          6       1    1fy2z             0.500000       0.692025
                          6       1    1fyz2             0.500000       0.692025
                          6       1    1fz3              0.500000       0.309483

                          7       1    1dx2              2.314000       7.145709
                                                         0.645000       0.000000
                          7       1    1dxy              2.314000      12.376731
                                                         0.645000       0.000000
                          7       1    1dxz              2.314000      12.376731
                                                         0.645000       0.000000
                          7       1    1dy2              2.314000       7.145709
                                                         0.645000       0.000000
                          7       1    1dyz              2.314000      12.376731
                                                         0.645000       0.000000
                          7       1    1dz2              2.314000       7.145709
                                                         0.645000       0.000000

                          7       2    2dx2              2.314000       0.000000
                                                         0.645000       0.764080
                          7       2    2dxy              2.314000       0.000000
                                                         0.645000       1.323426
                          7       2    2dxz              2.314000       0.000000
                                                         0.645000       1.323426
                          7       2    2dy2              2.314000       0.000000
                                                         0.645000       0.764080
                          7       2    2dyz              2.314000       0.000000
                                                         0.645000       1.323426
                          7       2    2dz2              2.314000       0.000000
                                                         0.645000       0.764080

                          8       1    1fx3              1.428000       3.281655
                          8       1    1fx2y             1.428000       7.338004
                          8       1    1fx2z             1.428000       7.338004
                          8       1    1fxy2             1.428000       7.338004
                          8       1    1fxyz             1.428000      12.709795
                          8       1    1fxz2             1.428000       7.338004
                          8       1    1fy3              1.428000       3.281655
                          8       1    1fy2z             1.428000       7.338004
                          8       1    1fyz2             1.428000       7.338004
                          8       1    1fz3              1.428000       3.281655

     RI Auxiliary Basis Set                                    aug-cc-pVTZ-OPTRI

       Number of orbital shell sets:                                          18
       Number of orbital shells:                                              18
       Number of primitive Cartesian functions:                               18
       Number of Cartesian basis functions:                                  103
       Number of spherical basis functions:                                   78
       Norm type:                                                              2

       Normalised Cartesian orbitals:

                        Set   Shell   Orbital            Exponent    Coefficient

                          1       1    1px               0.089368       0.069649
                          1       1    1py               0.089368       0.069649
                          1       1    1pz               0.089368       0.069649

                          2       1    1s                0.110437       0.136536

                          3       1    1dx2              0.319327       0.223266
                          3       1    1dxy              0.319327       0.386707
                          3       1    1dxz              0.319327       0.386707
                          3       1    1dy2              0.319327       0.223266
                          3       1    1dyz              0.319327       0.386707
                          3       1    1dz2              0.319327       0.223266

                          4       1    1px               0.330145       0.356715
                          4       1    1py               0.330145       0.356715
                          4       1    1pz               0.330145       0.356715

                          5       1    1s                0.453302       0.393732

                          6       1    1fx3              0.749935       0.770473
                          6       1    1fx2y             0.749935       1.722831
                          6       1    1fx2z             0.749935       1.722831
                          6       1    1fxy2             0.749935       1.722831
                          6       1    1fxyz             0.749935       2.984030
                          6       1    1fxz2             0.749935       1.722831
                          6       1    1fy3              0.749935       0.770473
                          6       1    1fy2z             0.749935       1.722831
                          6       1    1fyz2             0.749935       1.722831
                          6       1    1fz3              0.749935       0.770473

                          7       1    1px               1.067952       1.547497
                          7       1    1py               1.067952       1.547497
                          7       1    1pz               1.067952       1.547497

                          8       1    1gx4              1.075471       1.359352
                          8       1    1gx3y             1.075471       3.596507
                          8       1    1gx3z             1.075471       3.596507
                          8       1    1gx2y2            1.075471       4.643070
                          8       1    1gx2yz            1.075471       8.042034
                          8       1    1gx2z2            1.075471       4.643070
                          8       1    1gxy3             1.075471       3.596507
                          8       1    1gxy2z            1.075471       8.042034
                          8       1    1gxyz2            1.075471       8.042034
                          8       1    1gxz3             1.075471       3.596507
                          8       1    1gy4              1.075471       1.359352
                          8       1    1gy3z             1.075471       3.596507
                          8       1    1gy2z2            1.075471       4.643070
                          8       1    1gyz3             1.075471       3.596507
                          8       1    1gz4              1.075471       1.359352

                          9       1    1dx2              1.374781       2.872884
                          9       1    1dxy              1.374781       4.975981
                          9       1    1dxz              1.374781       4.975981
                          9       1    1dy2              1.374781       2.872884
                          9       1    1dyz              1.374781       4.975981
                          9       1    1dz2              1.374781       2.872884

                         10       1    1px               2.352584       4.153092
                         10       1    1py               2.352584       4.153092
                         10       1    1pz               2.352584       4.153092

                         11       1    1gx4              3.141319      25.911559
                         11       1    1gx3y             3.141319      68.555540
                         11       1    1gx3z             3.141319      68.555540
                         11       1    1gx2y2            3.141319      88.504822
                         11       1    1gx2yz            3.141319     153.294849
                         11       1    1gx2z2            3.141319      88.504822
                         11       1    1gxy3             3.141319      68.555540
                         11       1    1gxy2z            3.141319     153.294849
                         11       1    1gxyz2            3.141319     153.294849
                         11       1    1gxz3             3.141319      68.555540
                         11       1    1gy4              3.141319      25.911559
                         11       1    1gy3z             3.141319      68.555540
                         11       1    1gy2z2            3.141319      88.504822
                         11       1    1gyz3             3.141319      68.555540
                         11       1    1gz4              3.141319      25.911559

                         12       1    1fx3              3.242493      20.769800
                         12       1    1fx2y             3.242493      46.442684
                         12       1    1fx2z             3.242493      46.442684
                         12       1    1fxy2             3.242493      46.442684
                         12       1    1fxyz             3.242493      80.441088
                         12       1    1fxz2             3.242493      46.442684
                         12       1    1fy3              3.242493      20.769800
                         12       1    1fy2z             3.242493      46.442684
                         12       1    1fyz2             3.242493      46.442684
                         12       1    1fz3              3.242493      20.769800

                         13       1    1s                3.375893       1.775013

                         14       1    1dx2              4.278700      20.951020
                         14       1    1dxy              4.278700      36.288231
                         14       1    1dxz              4.278700      36.288231
                         14       1    1dy2              4.278700      20.951020
                         14       1    1dyz              4.278700      36.288231
                         14       1    1dz2              4.278700      20.951020

                         15       1    1px               5.456091      11.886174
                         15       1    1py               5.456091      11.886174
                         15       1    1pz               5.456091      11.886174

                         16       1    1fx3              6.915251     114.162201
                         16       1    1fx2y             6.915251     255.274442
                         16       1    1fx2z             6.915251     255.274442
                         16       1    1fxy2             6.915251     255.274442
                         16       1    1fxyz             6.915251     442.148303
                         16       1    1fxz2             6.915251     255.274442
                         16       1    1fy3              6.915251     114.162201
                         16       1    1fy2z             6.915251     255.274442
                         16       1    1fyz2             6.915251     255.274442
                         16       1    1fz3              6.915251     114.162201

                         17       1    1s               11.352581       4.407893

                         18       1    1dx2             12.069849     128.643448
                         18       1    1dxy             12.069849     222.816987
                         18       1    1dxz             12.069849     222.816987
                         18       1    1dy2             12.069849     128.643448
                         18       1    1dyz             12.069849     222.816987
                         18       1    1dz2             12.069849     128.643448

       Atomic covalent radius [Angstrom]:                                  0.730

       Atomic van der Waals radius [Angstrom]:                             1.520

     The atoms of this atomic kind are PAW atoms (GAPW):
       Hard Gaussian function radius:                                      1.512
       Rho0 radius:                                                        1.512
       Maximum GTO radius used for PAW projector construction:            24.566

     GAPW Soft Basis Set                                        aug-cc-pVTZ_soft

       Number of orbital shell sets:                                           8
       Number of orbital shells:                                              14
       Number of primitive Cartesian functions:                               13
       Number of Cartesian basis functions:                                   55
       Number of spherical basis functions:                                   46
       Norm type:                                                              2

       Normalised Cartesian orbitals:

                        Set   Shell   Orbital            Exponent    Coefficient

                          1       1    1px               0.059740       0.042099
                          1       1    1py               0.059740       0.042099
                          1       1    1pz               0.059740       0.042099

                          2       1    1s                0.073760       0.100873

                          3       1    1px               2.280000       0.000000
                                                         0.715600       0.938162
                                                         0.214000       0.000000
                          3       1    1py               2.280000       0.000000
                                                         0.715600       0.938162
                                                         0.214000       0.000000
                          3       1    1pz               2.280000       0.000000
                                                         0.715600       0.938162
                                                         0.214000       0.000000

                          3       2    2px               2.280000       1.239963
                                                         0.715600       0.460662
                                                         0.214000       0.069780
                          3       2    2py               2.280000       1.239963
                                                         0.715600       0.460662
                                                         0.214000       0.069780
                          3       2    2pz               2.280000       1.239963
                                                         0.715600       0.460662
                                                         0.214000       0.069780

                          3       3    3px               2.280000       0.000000
                                                         0.715600       0.000000
                                                         0.214000       0.207471
                          3       3    3py               2.280000       0.000000
                                                         0.715600       0.000000
                                                         0.214000       0.207471
                          3       3    3pz               2.280000       0.000000
                                                         0.715600       0.000000
                                                         0.214000       0.207471

                          4       1    1dx2              0.214000       0.110824
                          4       1    1dxy              0.214000       0.191953
                          4       1    1dxz              0.214000       0.191953
                          4       1    1dy2              0.214000       0.110824
                          4       1    1dyz              0.214000       0.191953
                          4       1    1dz2              0.214000       0.110824

                          5       1    1s                1.752000       0.046374
                                                         0.688200      -0.004391
                                                         0.238400       0.000579

                          5       2    2s                1.752000       1.085327
                                                         0.688200       0.000000
                                                         0.238400       0.000000

                          5       3    3s                1.752000       0.174666
                                                         0.688200       0.324949
                                                         0.238400       0.092100

                          5       4    4s                1.752000       0.000000
                                                         0.688200       0.000000
                                                         0.238400       0.243159

                          6       1    1fx3              0.500000       0.309483
                          6       1    1fx2y             0.500000       0.692025
                          6       1    1fx2z             0.500000       0.692025
                          6       1    1fxy2             0.500000       0.692025
                          6       1    1fxyz             0.500000       1.198623
                          6       1    1fxz2             0.500000       0.692025
                          6       1    1fy3              0.500000       0.309483
                          6       1    1fy2z             0.500000       0.692025
                          6       1    1fyz2             0.500000       0.692025
                          6       1    1fz3              0.500000       0.309483

                          7       1    1dx2              2.314000       7.145709
                                                         0.645000       0.000000
                          7       1    1dxy              2.314000      12.376731
                                                         0.645000       0.000000
                          7       1    1dxz              2.314000      12.376731
                                                         0.645000       0.000000
                          7       1    1dy2              2.314000       7.145709
                                                         0.645000       0.000000
                          7       1    1dyz              2.314000      12.376731
                                                         0.645000       0.000000
                          7       1    1dz2              2.314000       7.145709
                                                         0.645000       0.000000

                          7       2    2dx2              2.314000       0.000000
                                                         0.645000       0.764080
                          7       2    2dxy              2.314000       0.000000
                                                         0.645000       1.323426
                          7       2    2dxz              2.314000       0.000000
                                                         0.645000       1.323426
                          7       2    2dy2              2.314000       0.000000
                                                         0.645000       0.764080
                          7       2    2dyz              2.314000       0.000000
                                                         0.645000       1.323426
                          7       2    2dz2              2.314000       0.000000
                                                         0.645000       0.764080

                          8       1    1fx3              1.428000       3.281655
                          8       1    1fx2y             1.428000       7.338004
                          8       1    1fx2z             1.428000       7.338004
                          8       1    1fxy2             1.428000       7.338004
                          8       1    1fxyz             1.428000      12.709795
                          8       1    1fxz2             1.428000       7.338004
                          8       1    1fy3              1.428000       3.281655
                          8       1    1fy2z             1.428000       7.338004
                          8       1    1fyz2             1.428000       7.338004
                          8       1    1fz3              1.428000       3.281655

     AE Potential information for                                            ALL

       Description:                                       All-electron potential
                                          Krack, Parrinello, PCCP 2, 2105 (2000)

       Gaussian exponent of the core charge distribution:               8.154466
       Electronic configuration (s p d ...):                           4   4   0

  3. Atomic kind: H                                     Number of atoms:       6

     Orbital Basis Set                                               aug-cc-pVTZ

       Number of orbital shell sets:                                           6
       Number of orbital shells:                                               9
       Number of primitive Cartesian functions:                               11
       Number of Cartesian basis functions:                                   25
       Number of spherical basis functions:                                   23
       Norm type:                                                              2

       Normalised Cartesian orbitals:

                        Set   Shell   Orbital            Exponent    Coefficient

                          1       1    1s                0.025260       0.045158

                          2       1    1px               0.102000       0.082166
                          2       1    1py               0.102000       0.082166
                          2       1    1pz               0.102000       0.082166

                          3       1    1s               33.870000       0.000000
                                                         5.095000       0.000000
                                                         1.159000       0.000000
                                                         0.325800       0.307343
                                                         0.102700       0.000000

                          3       2    2s               33.870000       0.060718
                                                         5.095000       0.109507
                                                         1.159000       0.161468
                                                         0.325800       0.154871
                                                         0.102700       0.049575

                          3       3    3s               33.870000       0.000000
                                                         5.095000       0.000000
                                                         1.159000       0.000000
                                                         0.325800       0.000000
                                                         0.102700       0.129297

                          4       1    1dx2              0.247000       0.142439
                          4       1    1dxy              0.247000       0.246712
                          4       1    1dxz              0.247000       0.246712
                          4       1    1dy2              0.247000       0.142439
                          4       1    1dyz              0.247000       0.246712
                          4       1    1dz2              0.247000       0.142439

                          5       1    1px               1.407000       2.184277
                                                         0.388000       0.000000
                          5       1    1py               1.407000       2.184277
                                                         0.388000       0.000000
                          5       1    1pz               1.407000       2.184277
[...]
 sum_up_and_integrate                76  8.0    0.001    0.001   15.070   15.102
 integrate_v_rspace                  76  9.0    0.002    0.002   15.036   15.079
 mp_alltoall_z22v                  1587 13.9   11.603   14.766   11.603   14.766
 qs_vxc_create                       76  8.0    0.001    0.001   13.655   13.659
 xc_vxc_pw_create                    75  9.0    0.211    0.241   13.654   13.658
 density_rs2pw                       76  7.0    0.004    0.005   11.239   12.238
 mp_sync                            821  9.5    7.757   12.005    7.757   12.005
 xc_pw_derive                       450 11.0    0.004    0.005   10.308   11.109
 mp_alltoall_d11v                  1408  9.4    9.119   10.461    9.119   10.461
 mp_alltoall_d54                     76 10.0    4.224   10.449    4.224   10.449
 transfer_rs2pw                     381  8.4    0.007    0.012    8.875    9.854
 yz_to_x                            605 13.2    0.542    0.669    6.471    8.532
 rs_gather_matrices                  76 10.0    0.008    0.022    7.855    8.317
 grid_integrate_task_list            76 10.0    0.455    8.179    0.455    8.179
 qs_scf_new_mos                      75  5.0    0.001    0.001    7.911    7.928
 mp_waitany                       19236 11.5    6.884    7.882    6.884    7.882
 grid_collocate_task_list            76  7.0    4.311    7.758    4.311    7.758
 xc_pw_divergence                    75 10.0    0.002    0.002    7.001    7.731
 mp_alltoall_d45                     77 10.0    6.893    7.722    6.893    7.722
 eigensolver_symm                    76  6.0    0.003    0.003    7.067    7.075
 transfer_rs2pw_250                 153 10.0    1.214    1.451    5.264    6.945
 x_to_yz                            678 12.9    0.798    0.898    6.416    6.816
 potential_pw2rs                     76 10.0    0.016    0.021    6.724    6.774
 xc_rho_set_and_dset_create          75 10.0    0.168    0.209    6.287    6.675
 transfer_pw2rs                     381 10.6    0.005    0.007    6.139    6.219
 gspace_mixing                       74  5.0    0.161    0.173    5.905    5.905
 mp2_ri_gpw_compute_in                1  5.0    0.005    0.010    5.790    5.792
 mp2_ri_gpw_compute_in_loop           1  6.0    0.000    0.000    5.752    5.754
 contract_B_L                         4  7.0    0.019    0.025    4.932    5.387
 mp_sum_d                         10519  6.9    3.634    5.312    3.634    5.312
 calc_screening_functions             1 10.0    3.285    3.470    4.871    5.106
 prepare_gapw_den                    76  8.0    0.002    0.002    4.910    4.971
 broyden_mixing                      74  6.0    4.086    4.205    4.228    4.291
 integrate_vhg0_rspace               76  8.0    0.259    0.286    3.879    3.897
 dbt_total                            8  8.0    0.000    0.000    3.880    3.881
 mp_waitall_1                     79486 12.0    2.545    3.777    2.545    3.777
 dbt_contract                         4  9.0    0.001    0.001    3.284    3.743
 put_rho0_on_grid                    76  9.0    0.178    0.225    3.496    3.556
 transfer_pw2rs_250                 153 11.0    1.053    1.162    3.193    3.287
 mp_sum_dm                         3728  7.6    3.067    3.159    3.067    3.159
 create_B                             1  8.0    0.001    0.004    3.015    3.121
 transfer_rs2pw_90                   76  9.0    0.214    0.277    1.476    2.874
 powell_optimize                1078188 11.0    2.657    2.750    2.657    2.750
 rpa_num_int_RPA_matrix_operati     100  7.0    0.001    0.003    2.688    2.689
 cp_fm_syrk                           2  8.5    2.579    2.635    2.579    2.635
 dbt_tas_multiply                     8 11.5    0.000    0.000    2.598    2.598
 dbt_tas_total                        8 12.5    0.002    0.003    2.598    2.598
 create_A                             1  8.0    0.004    0.006    1.580    2.586
 calc_mat_Q                         100  8.0    0.000    0.001    2.190    2.207
 contract_S_to_Q                    100  9.0    0.001    0.001    2.173    2.191
 calculate_vxc_atom                  76  8.0    0.044    0.332    2.182    2.185
 qs_energies_init_hamiltonians        1  3.0    0.000    0.000    2.105    2.105
 build_core_hamiltonian_matrix        1  4.0    0.000    0.000    2.093    2.093
 overlap_condnum                      1  5.0    0.000    0.001    2.086    2.091
 mp_cart_create                     481 10.1    1.434    1.937    1.435    1.938
 arnoldi_conjugate_gradient           5  6.0    0.041    0.051    1.906    1.906
 dbt_pgrid_create_expert             84 10.8    0.000    0.000    1.402    1.905
 fm_general_add_bse                   5 10.2    0.000    0.000    0.871    1.883
 transfer_pw2rs_30                   76 12.0    0.698    0.760    1.588    1.731
 gaVxcgb_GC                         150  9.0    0.074    1.730    0.074    1.730
 calc_pair_dist_radii                 1 10.0    0.539    0.583    1.610    1.690
 transfer_rs2pw_30                   76  9.0    0.721    0.756    1.635    1.673
 mp_waitall_2                        54 15.7    0.314    1.672    0.314    1.672
 xc_functional_eval                 375 10.9    0.001    0.002    1.142    1.487
 pbe_lda_eval                       375 11.9    1.142    1.487    1.142    1.487
 calculate_rho_atom_coeff            76  6.0    0.037    0.070    1.484    1.484
 mp2_eri_3c_integrate                 1  7.0    0.018    0.036    0.583    1.441
 dbt_tas_replicate                    8 13.5    0.063    0.087    0.300    1.413
 integrate_set_3c                 28604  8.0    0.502    1.264    0.565    1.413
 dbt_tas_communicate_buffer          19 15.6    0.003    0.003    0.195    1.305
 dbt_tas_replicate_communicate_       6 14.5    0.000    0.000    0.184    1.294
 mp_sendrecv_dv                   32680 10.0    1.223    1.273    1.223    1.273
 pw_scatter_p                       830 12.1    1.088    1.244    1.088    1.244
 mp_sum_iv                          329  9.5    1.085    1.214    1.085    1.214
 fm_general_add_bse_5_comm_buff       5 11.2    0.000    0.000    0.188    1.205
 communicate_buffer                   5 12.2    0.001    0.001    0.188    1.205
 dbcsr_sym_matrix_vector_mult      5995  7.0    0.095    0.106    1.041    1.197
 mp_sum_dv                        29218 10.3    0.985    1.194    0.985    1.194
 create_qs_kind_set                   1  2.0    0.000    0.000    1.157    1.158
 read_qs_kind                         3  3.0    0.626    0.639    1.157    1.158
 calculate_rho_atom                 228  9.0    0.611    1.152    0.611    1.152
 cp2k_distribution_to_z_slices       76  9.0    0.351    0.383    0.847    1.027
 rs_grid_zero                       382 11.2    0.970    0.993    0.970    0.993
 pw_gather_p                        757 11.8    0.837    0.987    0.837    0.987
 transfer_pw2rs_90                   76 12.0    0.201    0.231    0.863    0.984
 dbt_tas_dbm                          8 13.5    0.000    0.000    0.982    0.982
 fft_wrap_pw1pw2_90                 152 10.5    0.023    0.034    0.872    0.977
 mp_isendrecv_dv                  65360 12.0    0.480    0.974    0.480    0.974
 dbt_copy                            12 10.1    0.000    0.001    0.340    0.922
 dbm_multiply                         8 15.5    0.828    0.917    0.828    0.917
 dbt_tas_mm_1N                        6 14.5    0.000    0.000    0.814    0.904
 compute_vec_Sigma_x_minus_vxc_       1  4.0    0.000    0.000    0.872    0.872
 integrate_four_center_getP          76 10.0    0.055    0.061    0.855    0.863
 pw_derive                          678 11.3    0.746    0.818    0.746    0.818
 cp_fm_cholesky_invert              101  8.0    0.772    0.816    0.772    0.816
 dbt_reshape                          8 11.6    0.051    0.055    0.226    0.805
 cp_fm_to_fm_submat_general         112 10.1    0.460    0.794    0.460    0.794
 integrate_four_center_dist_KS       76 10.0    0.043    0.049    0.773    0.775
 dbt_communicate_buffer               8 12.6    0.002    0.002    0.148    0.720
 pw_poisson_rebuild                  76  9.0    0.000    0.000    0.607    0.631
 ps_wavelet_create                    1 10.0    0.000    0.000    0.607    0.631
 RS_z_slice_distribution              1 11.0    0.500    0.591    0.607    0.631
 pw_copy                           1135 10.6    0.580    0.630    0.580    0.630
 calculate_dm_sparse                 75  6.0    0.001    0.001    0.593    0.620
 cp_dbcsr_plus_fm_fm_t               75  7.0    0.001    0.002    0.592    0.619
 dbt_remap                            8 10.0    0.002    0.002    0.582    0.582
 dbcsr_complete_redistribute        260  8.4    0.034    0.040    0.540    0.565
 dbcsr_add_d                       9053  7.0    0.008    0.010    0.081    0.555
 dbcsr_add_anytype                 9053  8.0    0.011    0.072    0.073    0.545
 parser_read_line                132557  4.0    0.046    0.049    0.531    0.540
 transfer_pw2rs_10                   76 12.0    0.182    0.216    0.490    0.520
 cp_fm_cholesky_decompose           102  9.0    0.492    0.509    0.492    0.509
 transfer_rs2pw_10                   76  9.0    0.184    0.199    0.493    0.504
 parser_read_line_low               147  5.0    0.045    0.221    0.485    0.497
 dbt_nd_mp_comm                       8 11.0    0.000    0.000    0.446    0.496
 mp_irecv_dm3                      2748 11.5    0.195    0.493    0.195    0.493
 create_integ_mat                     4  6.0    0.003    0.006    0.433    0.492
 dbcsr_rep_row_to_rep_col_vec      5995  8.0    0.031    0.039    0.218    0.487
 mp_bcast_dv                       6076  9.0    0.216    0.487    0.216    0.487
 array2fm                             4  7.0    0.000    0.000    0.362    0.483
 cp_fm_uplo_to_full                 103  8.0    0.307    0.479    0.307    0.479
 dbt_tas_estimate_result_nze          4 12.0    0.008    0.010    0.471    0.471
 broadcast_input_information        147  6.0    0.109    0.122    0.440    0.467
 pw_poisson_set                      77  8.9    0.002    0.002    0.455    0.464
 compute_Erpa_by_freq_int           100  8.0    0.002    0.002    0.463    0.463
 dbcsr_col_vec_to_rep_row          5995  8.0    0.042    0.050    0.338    0.462
 dbcsr_multiply_generic             120  8.1    0.007    0.008    0.417    0.451
 copy_dbcsr_to_fm                   106  6.5    0.002    0.002    0.430    0.451
 init_scf_run                         1  3.0    0.000    0.000    0.409    0.410
 mp_sum_l                           986  6.2    0.326    0.403    0.326    0.403
 Vh_1c_gg_integrals                  76  8.0    0.013    0.156    0.222    0.394
 mp_alltoall_z11v                   304 13.5    0.377    0.392    0.377    0.392
 integrate_four_center_load          76 10.0    0.000    0.001    0.311    0.388
 hfx_load_balance                     1 11.0    0.000    0.000    0.311    0.387
 mp_max_i                           616  2.9    0.191    0.379    0.191    0.379
 cp_fm_redistribute_start            81  8.0    0.192    0.251    0.279    0.375
 pw_integral_ab_c1d_c1d_gs           76  9.0    0.247    0.250    0.345    0.373
 fft_wrap_pw1pw2_30                 152 10.5    0.004    0.005    0.353    0.365
 mp2_main_alloc_hfx                   1  4.0    0.155    0.364    0.155    0.364
 pw_copy_to_array                   757 11.8    0.311    0.362    0.311    0.362
 mp_sum_i                            21  9.7    0.211    0.352    0.211    0.352
 restraint_control                    1  2.0    0.000    0.000    0.210    0.351
 hfx_load_balance_range               1 12.0    0.000    0.001    0.271    0.348
 copy_fm_to_dbcsr                   154  8.1    0.001    0.001    0.329    0.344
 dbcsr_finalize                   10696 10.5    0.013    0.113    0.057    0.343
 mp_isend_dm3                      2748 11.5    0.154    0.330    0.154    0.330
 pw_axpy                            755  9.3    0.278    0.322    0.278    0.322
 pw_copy_from_array                 830 12.1    0.249    0.314    0.249    0.314
 scf_env_initial_rho_setup            1  4.0    0.000    0.000    0.311    0.312
 dbcsr_desymmetrize_deep            108  7.5    0.008    0.010    0.260    0.270
 calculate_rho0_atom                228  9.0    0.257    0.269    0.257    0.269
 cp_fm_symm                          76  7.0    0.247    0.265    0.247    0.265
 mp_isend_dv                      24495 11.9    0.186    0.257    0.186    0.257
 qs_init_subsys                       1  2.0    0.005    0.011    0.248    0.249
 mp_bcast_i_src                     588  7.0    0.166    0.236    0.166    0.236
 array2fm_info                        4  8.0    0.164    0.230    0.171    0.233
 mp_alltoall_i11v                   888  9.3    0.231    0.233    0.231    0.233
 qs_env_setup                         1  3.0    0.000    0.000    0.227    0.232
 multiply_cannon                    120  9.1    0.014    0.015    0.206    0.232
 qs_env_rebuild_pw_env                2  3.5    0.000    0.000    0.226    0.231
 pw_env_rebuild                       1  5.0    0.001    0.001    0.226    0.231
 yz_to_xz                           152 14.0    0.014    0.015    0.217    0.228
 update_ks_atom                      76  8.0    0.029    0.062    0.171    0.220
 hybrid_alltoall_any                348 10.9    0.043    0.052    0.195    0.206
 fm_general_add_bse_4_buf_from_       1 10.0    0.164    0.204    0.164    0.204
 fm_general_add_bse_1_setup           5 11.2    0.171    0.196    0.171    0.196
 multiply_cannon_loop               120 10.1    0.020    0.021    0.170    0.195
 mp_bcast_am_src                    147  7.0    0.143    0.175    0.159    0.194
 fft_wrap_pw1pw2_10                 152 10.5    0.001    0.002    0.190    0.193
 xz_to_yz                           152 11.0    0.009    0.011    0.184    0.188
 fm_general_add_bse_4_buf_from_       1 10.0    0.165    0.187    0.165    0.187
 mp_bcast_dm                       2432  9.0    0.142    0.186    0.142    0.186
 make_m2s                           240  9.1    0.006    0.007    0.165    0.184
 pw_zero                            452 10.3    0.146    0.173    0.146    0.173
 pw_grid_setup                        4  6.0    0.000    0.000    0.167    0.172
 pw_grid_setup_internal               4  7.0    0.003    0.004    0.167    0.172
 dbcsr_merge_all                   9802 11.2    0.017    0.127    0.036    0.167
 dbcsr_iterator_start             72148  8.7    0.084    0.134    0.099    0.163
 dbcsr_copy                       24708  7.5    0.090    0.099    0.145    0.161
 array2fm_fill                        4  8.0    0.041    0.074    0.080    0.155
 mult_B_with_W                        1  8.0    0.000    0.000    0.133    0.151
 abc_contract                     28604  9.0    0.062    0.148    0.062    0.148
 offload_free_buffer                 84  8.4    0.128    0.147    0.128    0.147
 rs_scatter_matrices                 76  7.0    0.001    0.002    0.134    0.140
 dbt_split_blocks_generic            20  8.8    0.046    0.051    0.134    0.139
 mp_rank_compare                   1587 12.9    0.129    0.135    0.129    0.135
 make_images                        240 10.1    0.021    0.025    0.115    0.130
 dbm_reserve_blocks                  72 14.2    0.104    0.120    0.104    0.120
 mp_wait                            148  9.0    0.038    0.119    0.038    0.119
 postprocess_bse                      1  9.0    0.000    0.000    0.100    0.117
 cp_fm_create                       389  7.8    0.081    0.114    0.081    0.114
 mp_alltoall_i22                    368  9.1    0.084    0.111    0.084    0.111
 dbcsr_sym_matrix_vector_mult_l    5995  8.0    0.030    0.091    0.049    0.107
 dbcsr_iterator_stop              72148  8.7    0.062    0.087    0.075    0.105
 multiply_cannon_multrec           2920 11.1    0.068    0.103    0.069    0.104
 dbt_tas_reserve_blocks_index        64 13.1    0.003    0.003    0.086    0.101
 allocate_matrices_gw                 1  7.0    0.001    0.001    0.067    0.097
 dbt_tas_reshape                     11 13.6    0.000    0.000    0.088    0.096
 array2fm_buffer_send                 4  8.0    0.079    0.096    0.079    0.096
 get_vec_sigma_x                      1  8.0    0.000    0.000    0.063    0.094
 vxc_of_r_new                       300  9.0    0.001    0.014    0.003    0.092
 ao_to_mo_and_store_B_mult_gw_1       5  7.0    0.000    0.000    0.058    0.092
 dbt_distribution_new_expert         76 10.1    0.001    0.002    0.075    0.084
 mp_alltoall_i                       42 13.9    0.058    0.083    0.058    0.083
 dbcsr_create_new                 27354  8.7    0.058    0.064    0.074    0.083
 create_fast_row_vec_access       11990  8.0    0.049    0.056    0.076    0.083
 fm_general_add_bse_3_alloc_buf       5 11.2    0.057    0.083    0.057    0.083
 create_fast_col_vec_access       11990  8.0    0.049    0.055    0.075    0.082
 scale_and_distribute               152 10.0    0.076    0.082    0.076    0.082
 fm_general_add_bse_6_buffer_to       1 10.0    0.061    0.078    0.061    0.078
 dbt_split_copyback                   4 10.0    0.046    0.056    0.060    0.078
 pw_grid_sort                         4  8.0    0.043    0.045    0.067    0.070
 dbt_reserve_blocks_index            36 10.8    0.002    0.002    0.059    0.069
 pw_scale                           301  9.5    0.051    0.067    0.051    0.067
 array2fm_waitall                     4  8.0    0.000    0.000    0.010    0.066
 get_multipoles_mo                    1 10.0    0.000    0.000    0.048    0.064
 make_images_data                   240 11.1    0.003    0.004    0.053    0.064
 dbt_reserve_blocks_index_array      28 10.6    0.000    0.000    0.053    0.062
 ao_to_mo_and_store_B_mult_bse_       5  7.0    0.000    0.000    0.052    0.061
 scf_post_calculation_gpw             1  3.0    0.000    0.000    0.061    0.061
 write_available_results              1  4.0    0.000    0.000    0.061    0.061
 write_mo_free_results                1  5.0    0.003    0.004    0.060    0.061
 mp_sum_im                        10898 13.0    0.049    0.060    0.049    0.060
 truncate_BSE_matrices                1  8.0    0.000    0.000    0.038    0.060
 mp_irecv_dv                      24539 11.9    0.031    0.057    0.031    0.057
 ao_to_mo_and_store_B_E_Ex_gw_1       5  7.0    0.017    0.020    0.046    0.056
 multiply_cannon_metrocomm3        2920 11.1    0.005    0.005    0.025    0.055
 fm_general_add_bse_2_comm_entr       5 11.2    0.000    0.000    0.036    0.054
 ao_to_mo_and_store_B_E_Ex_bse_       5  7.0    0.019    0.022    0.044    0.052
 Q_trace_and_add_unit_matrix        100  8.0    0.009    0.010    0.035    0.052
 dbcsr_work_create                10370 10.4    0.005    0.035    0.008    0.051
 compute_max_radius                   1  6.0    0.022    0.051    0.022    0.051
 dbcsr_work_destroy_all           10370 11.3    0.005    0.037    0.007    0.051
 dbcsr_scale_anytype               9056  9.0    0.017    0.020    0.045    0.050
 self_consistency_check              75  5.0    0.000    0.000    0.023    0.049
 cp_sm_mix                           75  6.0    0.000    0.002    0.023    0.049
 mp_max_d                            77  6.9    0.022    0.048    0.022    0.048
 -------------------------------------------------------------------------------

 The number of warnings for this run is : 2
 
 -------------------------------------------------------------------------------
  **** **** ******  **  PROGRAM ENDED AT                 2025-03-11 05:52:01.310
 ***** ** ***  *** **   PROGRAM RAN ON                              i02r11c05s11
 **    ****   ******    PROGRAM RAN BY                                   di38fab
 ***** **    ** ** **   PROGRAM PROCESS ID                               1574000
  **** **  *******  **  PROGRAM STOPPED IN /hppfs/scratch/04/di38fab/05_MOL/aUKB
                                           qsEOTmq69kFe5R_nOg/5k_set_final_qzvp/
                                           OPUSAU/aug-cc-pVTZ
