SIRIUS 7.5.2, git hash: https://api.github.com/repos/electronic-structure/SIRIUS/git/ref/tags/v7.5.2
 DBCSR| CPU Multiplication driver                                           XSMM (U)
 DBCSR| Multrec recursion limit                                              512 (U)
 DBCSR| Multiplication stack size                                           1000 (D)
 DBCSR| Maximum elements for images                                    UNLIMITED (U)
 DBCSR| Multiplicative factor virtual images                                   1 (U)
 DBCSR| Use multiplication densification                                       T (D)
 DBCSR| Multiplication size stacks                                             3 (U)
 DBCSR| Use memory pool for CPU allocation                                     F (U)
 DBCSR| Number of 3D layers                                               SINGLE (U)
 DBCSR| Use MPI memory allocation                                              F (U)
 DBCSR| Use RMA algorithm                                                      F (U)
 DBCSR| Use Communication thread                                               T (U)
 DBCSR| Communication thread load                                             75 (D)
 DBCSR| MPI: My process id                                                     0
 DBCSR| MPI: Number of processes                                             192
 DBCSR| OMP: Current number of threads                                         4
 DBCSR| OMP: Max number of threads                                             4
 DBCSR| Split modifier for TAS multiplication algorithm                  1.0E+00 (U)


  **** **** ******  **  PROGRAM STARTED AT               2025-03-28 01:18:09.383
 ***** ** ***  *** **   PROGRAM STARTED ON                 n2cn0230.ab2021.local
 **    ****   ******    PROGRAM STARTED BY                              metdyn02
 ***** **    ** ** **   PROGRAM PROCESS ID                               1911124
  **** **  *******  **  PROGRAM STARTED IN /scratch/hpc-prf-metdyn/metdyn02_Remi
                                           /10_MOL/05_MOL/aUKBqsEOTmq69kFe5R_nOg
                                           /5k_set_final_qzvp/YOYZIV/TZVP/TDDFT/
                                           1e-4

 CP2K| version string:                 CP2K version 2025.1 (Development Version)
 CP2K| source code revision number:                                  git:9754b87
 CP2K| cp2kflags: omp libint fftw3 libxc libgrpp elpa parallel scalapack mpi_f08
 CP2K|             cosma xsmm plumed2 spglib sirius libvori libbqb libvdwxc hdf5
 CP2K| is freely available from                            https://www.cp2k.org/
 CP2K| Program compiled at                          Sun Mar 23 00:44:01 CET 2025
 CP2K| Program compiled on                                              n2login1
 CP2K| Program compiled for                                                local
 CP2K| Data directory path    /opt/software/pc2/EB-SW/software/CP2K/2024.1-foss-
 CP2K| Input file name                                                    GW.inp

 GLOBAL| Force Environment number                                              1
 GLOBAL| Basis set file name            /scratch/hpc-prf-metdyn/metdyn02_Remi/BA
 GLOBAL| Potential file name            /pc2/groups/hpc-prf-metdyn/metdyn02_Remi
 GLOBAL| MM Potential file name                                     MM_POTENTIAL
 GLOBAL| Coordinate file name                                      __STD_INPUT__
 GLOBAL| Method name                                                        CP2K
 GLOBAL| Project name                                                       MoS2
 GLOBAL| Run type                                                         ENERGY
 GLOBAL| FFT library                                                       FFTW3
 GLOBAL| Diagonalization library                                            ELPA
 GLOBAL| DGEMM library                                                      BLAS
 GLOBAL| Minimum number of eigenvectors for ELPA usage                        16
 GLOBAL| Orthonormality check for eigenvectors                          DISABLED
 GLOBAL| Matrix multiplication library                                     COSMA
 GLOBAL| All-to-all communication in single precision                          F
 GLOBAL| FFTs using library dependent lengths                                  F
 GLOBAL| Grid backend                                                       AUTO
 GLOBAL| Global print level                                               MEDIUM
 GLOBAL| MPI I/O enabled                                                       T
 GLOBAL| Total number of message passing processes                           192
 GLOBAL| Number of threads for this process                                    4
 GLOBAL| This output is from process                                           0
 GLOBAL| OpenMP stack size per thread (OMP_STACKSIZE)                    default
 GLOBAL| CPU model name                          AMD EPYC 7763 64-Core Processor
 GLOBAL| CPUID                                                              1002

 MEMORY| system memory details [Kb]
 MEMORY|                        rank 0           min           max       average
 MEMORY| MemTotal            263899260     263899260     263899264     263899260
 MEMORY| MemFree             244057752     239839984     244057752     241738476
 MEMORY| Buffers                206156         73224        215536        167320
 MEMORY| Cached                6226664       6226664       9957668       8227210
 MEMORY| Slab                  2089056       2009112       2848912       2375069
 MEMORY| SReclaimable           317968        301448        832396        452528
 MEMORY| MemLikelyFree       250808540     250143824     250844868     250585534


 *** Fundamental physical constants (SI units) ***

 *** Literature: B. J. Mohr and B. N. Taylor,
 ***             CODATA recommended values of the fundamental physical
 ***             constants: 2006, Web Version 5.1
 ***             http://physics.nist.gov/constants

 Speed of light in vacuum [m/s]                             2.99792458000000E+08
 Magnetic constant or permeability of vacuum [N/A**2]       1.25663706143592E-06
 Electric constant or permittivity of vacuum [F/m]          8.85418781762039E-12
 Planck constant (h) [J*s]                                  6.62606896000000E-34
 Planck constant (h-bar) [J*s]                              1.05457162825177E-34
 Elementary charge [C]                                      1.60217648700000E-19
 Electron mass [kg]                                         9.10938215000000E-31
 Electron g factor [ ]                                     -2.00231930436220E+00
 Proton mass [kg]                                           1.67262163700000E-27
 Fine-structure constant                                    7.29735253760000E-03
 Rydberg constant [1/m]                                     1.09737315685270E+07
 Avogadro constant [1/mol]                                  6.02214179000000E+23
 Boltzmann constant [J/K]                                   1.38065040000000E-23
 Atomic mass unit [kg]                                      1.66053878200000E-27
 Bohr radius [m]                                            5.29177208590000E-11

 *** Conversion factors ***

 [u] -> [a.u.]                                              1.82288848426455E+03
 [Angstrom] -> [Bohr] = [a.u.]                              1.88972613288564E+00
 [a.u.] = [Bohr] -> [Angstrom]                              5.29177208590000E-01
 [a.u.] -> [s]                                              2.41888432650478E-17
 [a.u.] -> [fs]                                             2.41888432650478E-02
 [a.u.] -> [J]                                              4.35974393937059E-18
 [a.u.] -> [N]                                              8.23872205491840E-08
 [a.u.] -> [K]                                              3.15774647902944E+05
 [a.u.] -> [kJ/mol]                                         2.62549961709828E+03
 [a.u.] -> [kcal/mol]                                       6.27509468713739E+02
 [a.u.] -> [Pa]                                             2.94210107994716E+13
 [a.u.] -> [bar]                                            2.94210107994716E+08
 [a.u.] -> [atm]                                            2.90362800883016E+08
 [a.u.] -> [eV]                                             2.72113838565563E+01
 [a.u.] -> [Hz]                                             6.57968392072181E+15
 [a.u.] -> [1/cm] (wave numbers)                            2.19474631370540E+05
 [a.u./Bohr**2] -> [1/cm]                                   5.14048714338585E+03
 

 CELL_TOP| Volume [angstrom^3]:                                     27000.000000
 CELL_TOP| Vector a [angstrom    30.000     0.000     0.000   |a| =    30.000000
 CELL_TOP| Vector b [angstrom     0.000    30.000     0.000   |b| =    30.000000
 CELL_TOP| Vector c [angstrom     0.000     0.000    30.000   |c| =    30.000000
 CELL_TOP| Angle (b,c), alpha [degree]:                                90.000000
 CELL_TOP| Angle (a,c), beta  [degree]:                                90.000000
 CELL_TOP| Angle (a,b), gamma [degree]:                                90.000000
 CELL_TOP| Numerically orthorhombic:                                         YES
 CELL_TOP| Periodicity                                                      NONE

 GENERATE|  Preliminary Number of Bonds generated:                             0
 GENERATE|  Achieved consistency in connectivity generation.

 CELL| Volume [angstrom^3]:                                         27000.000000
 CELL| Vector a [angstrom]:      30.000     0.000     0.000   |a| =    30.000000
 CELL| Vector b [angstrom]:       0.000    30.000     0.000   |b| =    30.000000
 CELL| Vector c [angstrom]:       0.000     0.000    30.000   |c| =    30.000000
 CELL| Angle (b,c), alpha [degree]:                                    90.000000
 CELL| Angle (a,c), beta  [degree]:                                    90.000000
 CELL| Angle (a,b), gamma [degree]:                                    90.000000
 CELL| Numerically orthorhombic:                                             YES
 CELL| Periodicity                                                          NONE

 CELL_REF| Volume [angstrom^3]:                                     27000.000000
 CELL_REF| Vector a [angstrom    30.000     0.000     0.000   |a| =    30.000000
 CELL_REF| Vector b [angstrom     0.000    30.000     0.000   |b| =    30.000000
 CELL_REF| Vector c [angstrom     0.000     0.000    30.000   |c| =    30.000000
 CELL_REF| Angle (b,c), alpha [degree]:                                90.000000
 CELL_REF| Angle (a,c), beta  [degree]:                                90.000000
 CELL_REF| Angle (a,b), gamma [degree]:                                90.000000
 CELL_REF| Numerically orthorhombic:                                         YES
 CELL_REF| Periodicity                                                      NONE

 *******************************************************************************
 *******************************************************************************
 **                                                                           **
 **     #####                         ##              ##                      **
 **    ##   ##            ##          ##              ##                      **
 **   ##     ##                       ##            ######                    **
 **   ##     ##  ##   ##  ##   #####  ##  ##   ####   ##    #####    #####    **
 **   ##     ##  ##   ##  ##  ##      ## ##   ##      ##   ##   ##  ##   ##   **
 **   ##  ## ##  ##   ##  ##  ##      ####     ###    ##   ######   ######    **
 **    ##  ###   ##   ##  ##  ##      ## ##      ##   ##   ##       ##        **
 **     #######   #####   ##   #####  ##  ##  ####    ##    #####   ##        **
 **           ##                                                    ##        **
 **                                                                           **
 **                                                ... make the atoms dance   **
 **                                                                           **
 **            Copyright (C) by CP2K developers group (2000-2025)             **
 **                      J. Chem. Phys. 152, 194103 (2020)                    **
 **                                                                           **
 *******************************************************************************

 DFT| Spin restricted Kohn-Sham (RKS) calculation                            RKS
 DFT| Multiplicity                                                             1
 DFT| Number of spin states                                                    1
 DFT| Charge                                                                   0
 DFT| Self-interaction correction (SIC)                                       NO
 DFT| Cutoffs: density                                              1.000000E-10
 DFT|          gradient                                             1.000000E-10
 DFT|          tau                                                  1.000000E-10
 DFT|          cutoff_smoothing_range                               0.000000E+00
 DFT| XC density smoothing                                                  NONE
 DFT| XC derivatives                                                          PW

 FUNCTIONAL| PBE:
 FUNCTIONAL| J.P.Perdew, K.Burke, M.Ernzerhof, Phys. Rev. Letter, vol. 77, n 18,
 FUNCTIONAL|  pp. 3865-3868, (1996)sx=0.750sc=1.000{spin unpolarized}           


 QS| Method:                                                                GAPW
 QS| Density plane wave grid type                        NON-SPHERICAL FULLSPACE
 QS| Number of grid levels:                                                    4
 QS| Density cutoff [a.u.]:                                                250.0
 QS| Multi grid cutoff [a.u.]: 1) grid level                               250.0
 QS|                           2) grid level                                83.3
 QS|                           3) grid level                                27.8
 QS|                           4) grid level                                 9.3
 QS| Grid level progression factor:                                          3.0
 QS| Relative density cutoff [a.u.]:                                        50.0
 QS| Interaction thresholds: eps_pgf_orb:                                1.0E-12
 QS|                         eps_filter_matrix:                          0.0E+00
 QS|                         eps_core_charge:                            1.0E-14
 QS|                         eps_rho_gspace:                             1.0E-12
 QS|                         eps_rho_rspace:                             1.0E-12
 QS|                         eps_gvg_rspace:                             1.0E-06
 QS|                         eps_ppl:                                    1.0E-02
 QS|                         eps_ppnl:                                   1.0E-08
 QS| GAPW|      One center basis from orbital basis primitives
 QS| GAPW|                   eps_fit:                                    1.0E-04
 QS| GAPW|                   eps_iso:                                    1.0E-12
 QS| GAPW|                   eps_svd:                                    1.0E-08
 QS| GAPW|                   eps_cpc:                                    1.0E-12
 QS| GAPW|   atom-r-grid: quadrature:                                     GC_LOG
 QS| GAPW|      atom-s-grid:  max l :                                          8
 QS| GAPW|      max_l_rho0 :                                                   2


 ATOMIC KIND INFORMATION

  1. Atomic kind: H                                     Number of atoms:       2

     Orbital Basis Set                                        aug-TZVP-MOLOPT-ae

       Number of orbital shell sets:                                           1
       Number of orbital shells:                                               9
       Number of primitive Cartesian functions:                                6
       Number of Cartesian basis functions:                                   25
       Number of spherical basis functions:                                   23
       Norm type:                                                              2

       Normalised Cartesian orbitals:

                        Set   Shell   Orbital            Exponent    Coefficient

                          1       1    1s                0.030000       0.000000
                                                         0.091371      -0.049397
                                                         0.293823      -0.051765
                                                         1.065127       0.831136
                                                         4.947701      -0.270539
                                                        34.177738      -6.423540

                          1       2    2s                0.030000       0.000000
                                                         0.091371      -0.041080
                                                         0.293823       0.227881
                                                         1.065127       0.154529
                                                         4.947701       0.528758
                                                        34.177738       3.211471

                          1       3    3s                0.030000       0.000000
                                                         0.091371       0.076395
                                                         0.293823       0.077306
                                                         1.065127       0.164523
                                                         4.947701      -0.040048
                                                        34.177738      -1.131577

                          1       4    4s                0.030000       0.043550
                                                         0.091371      -0.026138
                                                         0.293823      -0.246542
                                                         1.065127      -0.077212
                                                         4.947701       0.000000
                                                        34.177738       0.000000

                          1       5    2px               0.030000       0.000000
                                                         0.091371       0.008886
                                                         0.293823      -0.007684
                                                         1.065127       1.416453
                                                         4.947701       1.341091
                                                        34.177738     -11.084238
                          1       5    2py               0.030000       0.000000
                                                         0.091371       0.008886
                                                         0.293823      -0.007684
                                                         1.065127       1.416453
                                                         4.947701       1.341091
                                                        34.177738     -11.084238
                          1       5    2pz               0.030000       0.000000
                                                         0.091371       0.008886
                                                         0.293823      -0.007684
                                                         1.065127       1.416453
                                                         4.947701       1.341091
                                                        34.177738     -11.084238

                          1       6    3px               0.030000       0.000000
                                                         0.091371      -0.013062
                                                         0.293823       0.330130
                                                         1.065127       0.106963
                                                         4.947701      -0.549928
                                                        34.177738       9.643751
                          1       6    3py               0.030000       0.000000
                                                         0.091371      -0.013062
                                                         0.293823       0.330130
                                                         1.065127       0.106963
                                                         4.947701      -0.549928
                                                        34.177738       9.643751
                          1       6    3pz               0.030000       0.000000
                                                         0.091371      -0.013062
                                                         0.293823       0.330130
                                                         1.065127       0.106963
                                                         4.947701      -0.549928
                                                        34.177738       9.643751

                          1       7    4px               0.030000       0.014060
                                                         0.091371       0.022273
                                                         0.293823      -0.026384
                                                         1.065127       0.024249
                                                         4.947701       0.000000
                                                        34.177738       0.000000
                          1       7    4py               0.030000       0.014060
                                                         0.091371       0.022273
                                                         0.293823      -0.026384
                                                         1.065127       0.024249
                                                         4.947701       0.000000
                                                        34.177738       0.000000
                          1       7    4pz               0.030000       0.014060
                                                         0.091371       0.022273
                                                         0.293823      -0.026384
                                                         1.065127       0.024249
                                                         4.947701       0.000000
                                                        34.177738       0.000000

                          1       8    3dx2              0.030000       0.000000
                                                         0.091371      -0.004737
                                                         0.293823       0.052231
                                                         1.065127       1.617163
                                                         4.947701      -1.124420
                                                        34.177738       9.702470
                          1       8    3dxy              0.030000       0.000000
                                                         0.091371      -0.008204
                                                         0.293823       0.090468
                                                         1.065127       2.801009
                                                         4.947701      -1.947552
                                                        34.177738      16.805171
                          1       8    3dxz              0.030000       0.000000
                                                         0.091371      -0.008204
                                                         0.293823       0.090468
                                                         1.065127       2.801009
                                                         4.947701      -1.947552
                                                        34.177738      16.805171
                          1       8    3dy2              0.030000       0.000000
                                                         0.091371      -0.004737
                                                         0.293823       0.052231
                                                         1.065127       1.617163
                                                         4.947701      -1.124420
                                                        34.177738       9.702470
                          1       8    3dyz              0.030000       0.000000
                                                         0.091371      -0.008204
                                                         0.293823       0.090468
                                                         1.065127       2.801009
                                                         4.947701      -1.947552
                                                        34.177738      16.805171
                          1       8    3dz2              0.030000       0.000000
                                                         0.091371      -0.004737
                                                         0.293823       0.052231
                                                         1.065127       1.617163
                                                         4.947701      -1.124420
                                                        34.177738       9.702470

                          1       9    4dx2              0.030000       0.002444
                                                         0.091371       0.004703
                                                         0.293823       0.069647
                                                         1.065127       0.196246
                                                         4.947701       0.000000
                                                        34.177738       0.000000
                          1       9    4dxy              0.030000       0.004233
                                                         0.091371       0.008146
                                                         0.293823       0.120632
                                                         1.065127       0.339908
                                                         4.947701       0.000000
                                                        34.177738       0.000000
                          1       9    4dxz              0.030000       0.004233
                                                         0.091371       0.008146
                                                         0.293823       0.120632
                                                         1.065127       0.339908
                                                         4.947701       0.000000
                                                        34.177738       0.000000
                          1       9    4dy2              0.030000       0.002444
                                                         0.091371       0.004703
                                                         0.293823       0.069647
                                                         1.065127       0.196246
                                                         4.947701       0.000000
                                                        34.177738       0.000000
                          1       9    4dyz              0.030000       0.004233
                                                         0.091371       0.008146
                                                         0.293823       0.120632
                                                         1.065127       0.339908
                                                         4.947701       0.000000
                                                        34.177738       0.000000
                          1       9    4dz2              0.030000       0.002444
                                                         0.091371       0.004703
                                                         0.293823       0.069647
                                                         1.065127       0.196246
                                                         4.947701       0.000000
                                                        34.177738       0.000000

     RI Auxiliary Basis Set             RI_aug-TZVP-MOLOPT-ae_N_RI_023_s_p_d_f_g

       Number of orbital shell sets:                                           9
       Number of orbital shells:                                               9
       Number of primitive Cartesian functions:                                9
       Number of Cartesian basis functions:                                   25
       Number of spherical basis functions:                                   23
       Norm type:                                                              2

       Normalised Cartesian orbitals:

                        Set   Shell   Orbital            Exponent    Coefficient

                          1       1    5px               0.199704       0.190293
                          1       1    5py               0.199704       0.190293
                          1       1    5pz               0.199704       0.190293

                          2       1    8dx2              0.371061       0.290361
                          2       1    8dxy              0.371061       0.502921
                          2       1    8dxz              0.371061       0.502921
                          2       1    8dy2              0.371061       0.290361
                          2       1    8dyz              0.371061       0.502921
                          2       1    8dz2              0.371061       0.290361

                          3       1    1s                0.487032       0.415507

                          4       1    6px               0.587762       0.733571
                          4       1    6py               0.587762       0.733571
                          4       1    6pz               0.587762       0.733571

                          5       1    9dx2              1.486370       3.293301
                          5       1    9dxy              1.486370       5.704165
                          5       1    9dxz              1.486370       5.704165
                          5       1    9dy2              1.486370       3.293301
                          5       1    9dyz              1.486370       5.704165
                          5       1    9dz2              1.486370       3.293301

                          6       1    2s                1.774445       1.095739

                          7       1    7px               2.162097       3.737094
                          7       1    7py               2.162097       3.737094
                          7       1    7pz               2.162097       3.737094

                          8       1    3s                6.464982       2.889586

                          9       1    4s               23.554401       7.620161

       Atomic covalent radius [Angstrom]:                                  0.320

       Atomic van der Waals radius [Angstrom]:                             1.090

     The atoms of this atomic kind are PAW atoms (GAPW):
       Hard Gaussian function radius:                                      1.200
       Rho0 radius:                                                        1.200
       Maximum GTO radius used for PAW projector construction:            24.566

     GAPW Soft Basis Set                                 aug-TZVP-MOLOPT-ae_soft

       Number of orbital shell sets:                                           1
       Number of orbital shells:                                               9
       Number of primitive Cartesian functions:                                5
       Number of Cartesian basis functions:                                   25
       Number of spherical basis functions:                                   23
       Norm type:                                                              2

       Normalised Cartesian orbitals:

                        Set   Shell   Orbital            Exponent    Coefficient

                          1       1    1s                0.030000       0.000000
                                                         0.091371      -0.049397
                                                         0.293823      -0.051765
                                                         1.065127       0.831136
                                                         4.947701      -0.270539

                          1       2    2s                0.030000       0.000000
                                                         0.091371      -0.041080
                                                         0.293823       0.227881
                                                         1.065127       0.154529
                                                         4.947701       0.528758

                          1       3    3s                0.030000       0.000000
                                                         0.091371       0.076395
                                                         0.293823       0.077306
                                                         1.065127       0.164523
                                                         4.947701      -0.040048

                          1       4    4s                0.030000       0.043550
                                                         0.091371      -0.026138
                                                         0.293823      -0.246542
                                                         1.065127      -0.077212
                                                         4.947701       0.000000

                          1       5    2px               0.030000       0.000000
                                                         0.091371       0.008886
                                                         0.293823      -0.007684
                                                         1.065127       1.416453
                                                         4.947701       1.341091
                          1       5    2py               0.030000       0.000000
                                                         0.091371       0.008886
                                                         0.293823      -0.007684
                                                         1.065127       1.416453
                                                         4.947701       1.341091
                          1       5    2pz               0.030000       0.000000
                                                         0.091371       0.008886
                                                         0.293823      -0.007684
                                                         1.065127       1.416453
                                                         4.947701       1.341091

                          1       6    3px               0.030000       0.000000
                                                         0.091371      -0.013062
                                                         0.293823       0.330130
                                                         1.065127       0.106963
                                                         4.947701      -0.549928
                          1       6    3py               0.030000       0.000000
                                                         0.091371      -0.013062
                                                         0.293823       0.330130
                                                         1.065127       0.106963
                                                         4.947701      -0.549928
                          1       6    3pz               0.030000       0.000000
                                                         0.091371      -0.013062
                                                         0.293823       0.330130
                                                         1.065127       0.106963
                                                         4.947701      -0.549928

                          1       7    4px               0.030000       0.014060
                                                         0.091371       0.022273
                                                         0.293823      -0.026384
                                                         1.065127       0.024249
                                                         4.947701       0.000000
                          1       7    4py               0.030000       0.014060
                                                         0.091371       0.022273
                                                         0.293823      -0.026384
                                                         1.065127       0.024249
                                                         4.947701       0.000000
                          1       7    4pz               0.030000       0.014060
                                                         0.091371       0.022273
                                                         0.293823      -0.026384
                                                         1.065127       0.024249
                                                         4.947701       0.000000

                          1       8    3dx2              0.030000       0.000000
                                                         0.091371      -0.004737
                                                         0.293823       0.052231
                                                         1.065127       1.617163
                                                         4.947701      -1.124420
                          1       8    3dxy              0.030000       0.000000
                                                         0.091371      -0.008204
                                                         0.293823       0.090468
                                                         1.065127       2.801009
                                                         4.947701      -1.947552
                          1       8    3dxz              0.030000       0.000000
                                                         0.091371      -0.008204
                                                         0.293823       0.090468
                                                         1.065127       2.801009
                                                         4.947701      -1.947552
                          1       8    3dy2              0.030000       0.000000
                                                         0.091371      -0.004737
                                                         0.293823       0.052231
                                                         1.065127       1.617163
                                                         4.947701      -1.124420
                          1       8    3dyz              0.030000       0.000000
                                                         0.091371      -0.008204
                                                         0.293823       0.090468
                                                         1.065127       2.801009
                                                         4.947701      -1.947552
                          1       8    3dz2              0.030000       0.000000
                                                         0.091371      -0.004737
                                                         0.293823       0.052231
                                                         1.065127       1.617163
                                                         4.947701      -1.124420

                          1       9    4dx2              0.030000       0.002444
                                                         0.091371       0.004703
                                                         0.293823       0.069647
                                                         1.065127       0.196246
                                                         4.947701       0.000000
                          1       9    4dxy              0.030000       0.004233
                                                         0.091371       0.008146
                                                         0.293823       0.120632
                                                         1.065127       0.339908
                                                         4.947701       0.000000
                          1       9    4dxz              0.030000       0.004233
                                                         0.091371       0.008146
                                                         0.293823       0.120632
                                                         1.065127       0.339908
                                                         4.947701       0.000000
                          1       9    4dy2              0.030000       0.002444
                                                         0.091371       0.004703
                                                         0.293823       0.069647
                                                         1.065127       0.196246
                                                         4.947701       0.000000
                          1       9    4dyz              0.030000       0.004233
                                                         0.091371       0.008146
                                                         0.293823       0.120632
                                                         1.065127       0.339908
                                                         4.947701       0.000000
                          1       9    4dz2              0.030000       0.002444
                                                         0.091371       0.004703
                                                         0.293823       0.069647
                                                         1.065127       0.196246
                                                         4.947701       0.000000

     AE Potential information for                                            ALL

       Description:                                       All-electron potential
                                          Krack, Parrinello, PCCP 2, 2105 (2000)

       Gaussian exponent of the core charge distribution:              12.500000
       Electronic configuration (s p d ...):                           1   0   0

  2. Atomic kind: N                                     Number of atoms:       4

     Orbital Basis Set                                        aug-TZVP-MOLOPT-ae

       Number of orbital shell sets:                                           2
       Number of orbital shells:                                              16
       Number of primitive Cartesian functions:                               13
       Number of Cartesian basis functions:                                   71
       Number of spherical basis functions:                                   56
       Norm type:                                                              2

       Normalised Cartesian orbitals:

                        Set   Shell   Orbital            Exponent    Coefficient

                          1       1    1s                0.045000       0.000000
                                                         0.113512       0.014500
                                                         0.322032       0.036074
                                                         0.930550      -0.061635
                                                         2.987378       0.535699
                                                         8.608625       2.378505
                                                        49.270190       0.802518

                          1       2    2s                0.045000       0.000000
                                                         0.113512       0.032692
                                                         0.322032       0.082974
                                                         0.930550       0.396674
                                                         2.987378       0.054918
                                                         8.608625      -0.061481
                                                        49.270190      -0.622920

                          1       3    3s                0.045000       0.000000
                                                         0.113512       0.047996
                                                         0.322032       0.306069
                                                         0.930550      -0.408076
                                                         2.987378      -0.229943
                                                         8.608625      -0.870010
                                                        49.270190      -0.366977

                          1       4    4s                0.045000       0.000000
                                                         0.113512       0.171213
                                                         0.322032      -0.186943
                                                         0.930550      -0.188982
                                                         2.987378       0.637930
                                                         8.608625      -0.961511
                                                        49.270190      -7.166333

                          1       5    5s                0.045000       0.096440
                                                         0.113512      -0.064027
                                                         0.322032      -0.041902
                                                         0.930550       0.111692
                                                         2.987378       0.000000
                                                         8.608625       0.000000
                                                        49.270190       0.000000

                          1       6    2px               0.045000       0.000000
                                                         0.113512       0.006367
                                                         0.322032       0.040684
                                                         0.930550       0.811118
                                                         2.987378       1.750760
                                                         8.608625       1.288759
                                                        49.270190      12.161855
                          1       6    2py               0.045000       0.000000
                                                         0.113512       0.006367
                                                         0.322032       0.040684
                                                         0.930550       0.811118
                                                         2.987378       1.750760
                                                         8.608625       1.288759
                                                        49.270190      12.161855
                          1       6    2pz               0.045000       0.000000
                                                         0.113512       0.006367
                                                         0.322032       0.040684
                                                         0.930550       0.811118
                                                         2.987378       1.750760
                                                         8.608625       1.288759
                                                        49.270190      12.161855

                          1       7    3px               0.045000       0.000000
                                                         0.113512       0.011134
                                                         0.322032       0.344073
                                                         0.930550      -0.153789
                                                         2.987378      -0.764833
                                                         8.608625       0.375399
                                                        49.270190     -28.403920
                          1       7    3py               0.045000       0.000000
                                                         0.113512       0.011134
                                                         0.322032       0.344073
                                                         0.930550      -0.153789
                                                         2.987378      -0.764833
                                                         8.608625       0.375399
                                                        49.270190     -28.403920
                          1       7    3pz               0.045000       0.000000
                                                         0.113512       0.011134
                                                         0.322032       0.344073
                                                         0.930550      -0.153789
                                                         2.987378      -0.764833
                                                         8.608625       0.375399
                                                        49.270190     -28.403920

                          1       8    4px               0.045000       0.000000
                                                         0.113512       0.104427
                                                         0.322032      -0.047567
                                                         0.930550      -0.121777
                                                         2.987378      -0.049280
                                                         8.608625      -0.402261
                                                        49.270190       8.328837
                          1       8    4py               0.045000       0.000000
                                                         0.113512       0.104427
                                                         0.322032      -0.047567
                                                         0.930550      -0.121777
                                                         2.987378      -0.049280
                                                         8.608625      -0.402261
                                                        49.270190       8.328837
                          1       8    4pz               0.045000       0.000000
                                                         0.113512       0.104427
                                                         0.322032      -0.047567
                                                         0.930550      -0.121777
                                                         2.987378      -0.049280
                                                         8.608625      -0.402261
                                                        49.270190       8.328837

                          1       9    5px               0.045000       0.002493
                                                         0.113512      -0.112828
                                                         0.322032       0.052724
                                                         0.930550       0.295283
                                                         2.987378       0.000000
                                                         8.608625       0.000000
                                                        49.270190       0.000000
                          1       9    5py               0.045000       0.002493
                                                         0.113512      -0.112828
                                                         0.322032       0.052724
                                                         0.930550       0.295283
                                                         2.987378       0.000000
                                                         8.608625       0.000000
                                                        49.270190       0.000000
                          1       9    5pz               0.045000       0.002493
                                                         0.113512      -0.112828
                                                         0.322032       0.052724
                                                         0.930550       0.295283
                                                         2.987378       0.000000
                                                         8.608625       0.000000
                                                        49.270190       0.000000

                          1      10    3dx2              0.045000       0.000000
                                                         0.113512       0.008426
                                                         0.322032       0.004138
                                                         0.930550       0.975526
                                                         2.987378       4.861216
                                                         8.608625     -15.504622
                                                        49.270190     -47.156995
                          1      10    3dxy              0.045000       0.000000
                                                         0.113512       0.014594
                                                         0.322032       0.007167
                                                         0.930550       1.689661
                                                         2.987378       8.419873
                                                         8.608625     -26.854794
                                                        49.270190     -81.678311
                          1      10    3dxz              0.045000       0.000000
                                                         0.113512       0.014594
                                                         0.322032       0.007167
                                                         0.930550       1.689661
                                                         2.987378       8.419873
                                                         8.608625     -26.854794
                                                        49.270190     -81.678311
                          1      10    3dy2              0.045000       0.000000
                                                         0.113512       0.008426
                                                         0.322032       0.004138
                                                         0.930550       0.975526
                                                         2.987378       4.861216
                                                         8.608625     -15.504622
                                                        49.270190     -47.156995
                          1      10    3dyz              0.045000       0.000000
                                                         0.113512       0.014594
                                                         0.322032       0.007167
                                                         0.930550       1.689661
                                                         2.987378       8.419873
                                                         8.608625     -26.854794
                                                        49.270190     -81.678311
                          1      10    3dz2              0.045000       0.000000
                                                         0.113512       0.008426
                                                         0.322032       0.004138
                                                         0.930550       0.975526
                                                         2.987378       4.861216
                                                         8.608625     -15.504622
                                                        49.270190     -47.156995

                          1      11    4dx2              0.045000       0.000000
                                                         0.113512      -0.007657
                                                         0.322032       0.207542
                                                         0.930550       0.469670
                                                         2.987378      -3.348764
                                                         8.608625      17.703387
                                                        49.270190      69.517765
                          1      11    4dxy              0.045000       0.000000
                                                         0.113512      -0.013263
                                                         0.322032       0.359472
                                                         0.930550       0.813493
                                                         2.987378      -5.800229
                                                         8.608625      30.663165
                                                        49.270190     120.408301
                          1      11    4dxz              0.045000       0.000000
                                                         0.113512      -0.013263
                                                         0.322032       0.359472
                                                         0.930550       0.813493
                                                         2.987378      -5.800229
                                                         8.608625      30.663165
                                                        49.270190     120.408301
                          1      11    4dy2              0.045000       0.000000
                                                         0.113512      -0.007657
                                                         0.322032       0.207542
                                                         0.930550       0.469670
                                                         2.987378      -3.348764
                                                         8.608625      17.703387
                                                        49.270190      69.517765
                          1      11    4dyz              0.045000       0.000000
                                                         0.113512      -0.013263
                                                         0.322032       0.359472
                                                         0.930550       0.813493
                                                         2.987378      -5.800229
                                                         8.608625      30.663165
                                                        49.270190     120.408301
                          1      11    4dz2              0.045000       0.000000
                                                         0.113512      -0.007657
                                                         0.322032       0.207542
                                                         0.930550       0.469670
                                                         2.987378      -3.348764
                                                         8.608625      17.703387
                                                        49.270190      69.517765

                          1      12    5dx2              0.045000      -0.000996
                                                         0.113512       0.002353
                                                         0.322032       0.164897
                                                         0.930550       0.509235
                                                         2.987378       0.000000
                                                         8.608625       0.000000
                                                        49.270190       0.000000
                          1      12    5dxy              0.045000      -0.001726
                                                         0.113512       0.004075
                                                         0.322032       0.285610
                                                         0.930550       0.882020
                                                         2.987378       0.000000
                                                         8.608625       0.000000
                                                        49.270190       0.000000
                          1      12    5dxz              0.045000      -0.001726
                                                         0.113512       0.004075
                                                         0.322032       0.285610
                                                         0.930550       0.882020
                                                         2.987378       0.000000
                                                         8.608625       0.000000
                                                        49.270190       0.000000
                          1      12    5dy2              0.045000      -0.000996
                                                         0.113512       0.002353
                                                         0.322032       0.164897
                                                         0.930550       0.509235
                                                         2.987378       0.000000
                                                         8.608625       0.000000
                                                        49.270190       0.000000
                          1      12    5dyz              0.045000      -0.001726
                                                         0.113512       0.004075
                                                         0.322032       0.285610
                                                         0.930550       0.882020
                                                         2.987378       0.000000
                                                         8.608625       0.000000
                                                        49.270190       0.000000
                          1      12    5dz2              0.045000      -0.000996
                                                         0.113512       0.002353
                                                         0.322032       0.164897
                                                         0.930550       0.509235
                                                         2.987378       0.000000
                                                         8.608625       0.000000
                                                        49.270190       0.000000

                          1      13    4fx3              0.045000       0.000000
                                                         0.113512       0.000350
                                                         0.322032       0.026408
                                                         0.930550       1.022795
                                                         2.987378       1.277764
                                                         8.608625      -7.108652
                                                        49.270190     240.939937
                          1      13    4fx2y             0.045000       0.000000
                                                         0.113512       0.000782
                                                         0.322032       0.059050
                                                         0.930550       2.287038
                                                         2.987378       2.857166
                                                         8.608625     -15.895429
                                                        49.270190     538.758077
                          1      13    4fx2z             0.045000       0.000000
                                                         0.113512       0.000782
                                                         0.322032       0.059050
                                                         0.930550       2.287038
                                                         2.987378       2.857166
                                                         8.608625     -15.895429
                                                        49.270190     538.758077
                          1      13    4fxy2             0.045000       0.000000
                                                         0.113512       0.000782
                                                         0.322032       0.059050
                                                         0.930550       2.287038
                                                         2.987378       2.857166
                                                         8.608625     -15.895429
                                                        49.270190     538.758077
                          1      13    4fxyz             0.045000       0.000000
                                                         0.113512       0.001354
                                                         0.322032       0.102278
                                                         0.930550       3.961267
                                                         2.987378       4.948757
                                                         8.608625     -27.531691
                                                        49.270190     933.156362
                          1      13    4fxz2             0.045000       0.000000
                                                         0.113512       0.000782
                                                         0.322032       0.059050
                                                         0.930550       2.287038
                                                         2.987378       2.857166
                                                         8.608625     -15.895429
                                                        49.270190     538.758077
                          1      13    4fy3              0.045000       0.000000
                                                         0.113512       0.000350
                                                         0.322032       0.026408
                                                         0.930550       1.022795
                                                         2.987378       1.277764
                                                         8.608625      -7.108652
                                                        49.270190     240.939937
                          1      13    4fy2z             0.045000       0.000000
                                                         0.113512       0.000782
                                                         0.322032       0.059050
                                                         0.930550       2.287038
                                                         2.987378       2.857166
                                                         8.608625     -15.895429
                                                        49.270190     538.758077
                          1      13    4fyz2             0.045000       0.000000
                                                         0.113512       0.000782
                                                         0.322032       0.059050
                                                         0.930550       2.287038
                                                         2.987378       2.857166
                                                         8.608625     -15.895429
                                                        49.270190     538.758077
                          1      13    4fz3              0.045000       0.000000
                                                         0.113512       0.000350
                                                         0.322032       0.026408
                                                         0.930550       1.022795
                                                         2.987378       1.277764
                                                         8.608625      -7.108652
                                                        49.270190     240.939937

                          1      14    5fx3              0.045000       0.000031
                                                         0.113512       0.000543
                                                         0.322032       0.086041
                                                         0.930550       0.419256
                                                         2.987378       0.000000
                                                         8.608625       0.000000
                                                        49.270190       0.000000
                          1      14    5fx2y             0.045000       0.000070
                                                         0.113512       0.001214
                                                         0.322032       0.192393
                                                         0.930550       0.937485
                                                         2.987378       0.000000
                                                         8.608625       0.000000
                                                        49.270190       0.000000
                          1      14    5fx2z             0.045000       0.000070
                                                         0.113512       0.001214
                                                         0.322032       0.192393
                                                         0.930550       0.937485
                                                         2.987378       0.000000
                                                         8.608625       0.000000
                                                        49.270190       0.000000
                          1      14    5fxy2             0.045000       0.000070
                                                         0.113512       0.001214
                                                         0.322032       0.192393
                                                         0.930550       0.937485
                                                         2.987378       0.000000
                                                         8.608625       0.000000
                                                        49.270190       0.000000
                          1      14    5fxyz             0.045000       0.000121
                                                         0.113512       0.002103
                                                         0.322032       0.333234
                                                         0.930550       1.623771
                                                         2.987378       0.000000
                                                         8.608625       0.000000
                                                        49.270190       0.000000
                          1      14    5fxz2             0.045000       0.000070
                                                         0.113512       0.001214
                                                         0.322032       0.192393
                                                         0.930550       0.937485
                                                         2.987378       0.000000
                                                         8.608625       0.000000
                                                        49.270190       0.000000
                          1      14    5fy3              0.045000       0.000031
                                                         0.113512       0.000543
                                                         0.322032       0.086041
                                                         0.930550       0.419256
                                                         2.987378       0.000000
                                                         8.608625       0.000000
                                                        49.270190       0.000000
                          1      14    5fy2z             0.045000       0.000070
                                                         0.113512       0.001214
                                                         0.322032       0.192393
                                                         0.930550       0.937485
                                                         2.987378       0.000000
                                                         8.608625       0.000000
                                                        49.270190       0.000000
                          1      14    5fyz2             0.045000       0.000070
                                                         0.113512       0.001214
                                                         0.322032       0.192393
                                                         0.930550       0.937485
                                                         2.987378       0.000000
                                                         8.608625       0.000000
                                                        49.270190       0.000000
                          1      14    5fz3              0.045000       0.000031
                                                         0.113512       0.000543
                                                         0.322032       0.086041
                                                         0.930550       0.419256
                                                         2.987378       0.000000
                                                         8.608625       0.000000
                                                        49.270190       0.000000

                          1      15    5gx4              0.045000       0.000051
                                                         0.113512       0.002105
                                                         0.322032       0.008605
                                                         0.930550       0.058205
                                                         2.987378       0.000000
                                                         8.608625       0.000000
                                                        49.270190       0.000000
                          1      15    5gx3y             0.045000       0.000134
                                                         0.113512       0.005569
                                                         0.322032       0.022768
                                                         0.930550       0.153995
                                                         2.987378       0.000000
                                                         8.608625       0.000000
                                                        49.270190       0.000000
                          1      15    5gx3z             0.045000       0.000134
                                                         0.113512       0.005569
                                                         0.322032       0.022768
                                                         0.930550       0.153995
                                                         2.987378       0.000000
                                                         8.608625       0.000000
                                                        49.270190       0.000000
                          1      15    5gx2y2            0.045000       0.000173
                                                         0.113512       0.007189
                                                         0.322032       0.029393
                                                         0.930550       0.198807
                                                         2.987378       0.000000
                                                         8.608625       0.000000
                                                        49.270190       0.000000
                          1      15    5gx2yz            0.045000       0.000300
                                                         0.113512       0.012452
                                                         0.322032       0.050910
                                                         0.930550       0.344344
                                                         2.987378       0.000000
                                                         8.608625       0.000000
                                                        49.270190       0.000000
                          1      15    5gx2z2            0.045000       0.000173
                                                         0.113512       0.007189
                                                         0.322032       0.029393
                                                         0.930550       0.198807
                                                         2.987378       0.000000
                                                         8.608625       0.000000
                                                        49.270190       0.000000
                          1      15    5gxy3             0.045000       0.000134
                                                         0.113512       0.005569
                                                         0.322032       0.022768
                                                         0.930550       0.153995
                                                         2.987378       0.000000
                                                         8.608625       0.000000
                                                        49.270190       0.000000
                          1      15    5gxy2z            0.045000       0.000300
                                                         0.113512       0.012452
                                                         0.322032       0.050910
                                                         0.930550       0.344344
                                                         2.987378       0.000000
                                                         8.608625       0.000000
                                                        49.270190       0.000000
                          1      15    5gxyz2            0.045000       0.000300
                                                         0.113512       0.012452
                                                         0.322032       0.050910
                                                         0.930550       0.344344
                                                         2.987378       0.000000
[...]
 Parallel Comput. 40, 47-58 (2014).
 Sparse matrix multiplication: The distributed block-compressed sparse row 
 library.
 https://doi.org/10.1016/j.parco.2014.03.012

 A. Marek, V. Blum, R. Johanni, V. Havu, B. Lang, T. Auckenthaler, A. Heinecke, 
 H. Bungartz, H. Lederer.
 J. Phys. Condens. Matter 26, 213201 (2014).
 The ELPA library: scalable parallel eigenvalue solutions for electronic 
 structure theory and computational science.
 https://doi.org/10.1088/0953-8984/26/21/213201

 M. Guidon, J. Hutter, J. VandeVondele.
 J. Chem. Theory Comput. 5, 3010-3021 (2009).
 Robust Periodic Hartree-Fock Exchange for Large-Scale Simulations Using 
 Gaussian Basis Sets.
 https://doi.org/10.1021/ct900494g

 M. Guidon, F. Schiffmann, J. Hutter, J. VandeVondele.
 J. Chem. Phys. 128, 214104 (2008).
 Ab initio molecular dynamics using hybrid density functionals.
 https://doi.org/10.1063/1.2931945

 L. Genovese, T. Deutsch, S. Goedecker.
 J. Chem. Phys. 127, 054704 (2007).
 Efficient and accurate three-dimensional Poisson solver for surface problems.
 https://doi.org/10.1063/1.2754685

 J. VandeVondele, J. Hutter.
 J. Chem. Phys. 127, 114105 (2007).
 Gaussian basis sets for accurate calculations on molecular systems in gas and 
 condensed phases.
 https://doi.org/10.1063/1.2770708

 L. Genovese, T. Deutsch, A. Neelov, S. Goedecker, G. Beylkin.
 J. Chem. Phys. 125, 074105 (2006).
 Efficient solution of Poisson's equation with free boundary conditions.
 https://doi.org/10.1063/1.2335442

 M. Iannuzzi, T. Chassaing, T. Wallman, J. Hutter.
 CHIMIA 59, 499-503 (2005).
 Ground and excited state density functional calculations with the Gaussian and 
 augmented-plane-wave method.
 https://doi.org/10.2533/000942905777676164

 M. Frigo, S. G. Johnson.
 Proc. IEEE 93, 216-231 (2005).
 The design and implementation of FFTW3.
 https://doi.org/10.1109/JPROC.2004.840301

 R. L. Martin.
 J. Chem. Phys. 118, 4775-4777 (2003).
 Natural transition orbitals.
 https://doi.org/10.1063/1.1558471

 M. Krack, M. Parrinello.
 Phys. Chem. Chem. Phys. 2, 2105-2112 (2000).
 All-electron ab-initio molecular dynamics.
 https://doi.org/10.1039/b001167n

 G. Lippert, J. Hutter, M. Parrinello.
 Theor. Chem. Acc. 103, 124-140 (1999).
 The Gaussian and augmented-plane-wave density functional method for ab initio 
 molecular dynamics simulations.
 https://doi.org/10.1007/s002140050523

 J. P. Perdew, K. Burke, M. Ernzerhof.
 Phys. Rev. Lett. 77, 3865-3868 (1996).
 Generalized gradient approximation made simple.
 https://doi.org/10.1103/PhysRevLett.77.3865


 -------------------------------------------------------------------------------
 -                                                                             -
 -                                T I M I N G                                  -
 -                                                                             -
 -------------------------------------------------------------------------------
 SUBROUTINE                       CALLS  ASD         SELF TIME        TOTAL TIME
                                MAXIMUM       AVERAGE  MAXIMUM  AVERAGE  MAXIMUM
 CP2K                                 1  1.0    0.022    0.044 1060.097 1060.105
 qs_energies                          1  2.0    0.000    0.000 1059.766 1059.775
 scf_env_do_scf                       1  3.0    0.000    0.000  591.179  591.186
 scf_env_do_scf_inner_loop           72  4.0    0.001    0.004  591.179  591.186
 integrate_four_center              432  9.8   49.042   65.913  565.998  566.108
 qs_ks_update_qs_env                 72  5.0    0.001    0.001  554.947  555.197
 rebuild_ks_matrix                   72  6.0    0.000    0.000  554.935  555.185
 qs_ks_build_kohn_sham_matrix        72  7.0    0.010    0.012  554.935  555.185
 integrate_four_center_main         432 10.8    9.854   53.292  397.837  468.801
 integrate_four_center_bin        88096 11.8  387.983  468.184  387.983  468.184
 qs_energies_properties               1  3.0    0.000    0.000  466.957  466.961
 tddfpt                               1  4.0    0.000    0.000  466.957  466.961
 tddfpt_energies                      1  5.0    0.000    0.000  466.917  466.921
 tddfpt_davidson_solver               1  6.0    0.001    0.001  463.114  463.118
 tddfpt_compute_Aop_evects            9  7.0    0.000    0.000  460.411  460.414
 hfx_ks_matrix                       72  8.0    0.001    0.002  454.953  454.982
 fhxc_kernel                          9  8.0    0.007    0.010  344.882  344.885
 fft_wrap_pw1pw2                   5126 11.1    0.101    0.131  184.594  193.597
 fft_wrap_pw1pw2_250               3608 12.1    2.847    3.751  175.143  189.166
 mp_sync                           2290 11.5   82.336  186.248   82.336  186.248
 fft3d_ps                          5126 13.1   17.940   24.970  173.142  181.835
 mp_alltoall_z22v                  5126 15.1  148.867  156.627  148.867  156.627
 tddfpt_apply_coulomb               180  9.0    0.003    0.004  112.884  116.605
 tddfpt_apply_hfx                     9  8.0    0.002    0.003  114.818  114.819
 pw_poisson_solve                   252  9.4    1.048    1.404  107.855  111.567
 tddft_hfx_matrix                   360  9.0    0.004    0.008  111.052  111.148
 qs_rho_update_rho_low              254  7.8    0.003    0.007   98.988   99.058
 x_to_yz                           2092 13.7    2.289    3.848   89.440   92.036
 calculate_rho_elec                 254  8.8    0.333    0.472   82.795   82.819
 prepare_gapw_den                   253  8.7    0.004    0.005   78.401   80.840
 yz_to_x                           2022 14.5    1.754    2.000   63.287   69.256
 xc_pw_derive                      1515 11.0    0.012    0.014   63.878   65.115
 tddfpt_apply_xc_analytic           180  9.0    0.279    0.406   56.905   58.138
 density_rs2pw                      254  9.8    0.011    0.013   50.335   53.425
 integrate_v_rspace                 252  9.0    0.006    0.008   51.162   53.253
 calculate_rho_atom                 759  9.7    3.798   52.796    3.798   52.796
 mp_sum_dv                        31951  8.8   49.100   51.241   49.100   51.241
 potential_pw2rs                    252 10.0    0.026    0.034   50.329   50.621
 transfer_pw2rs                    1261 10.9    0.024    0.032   45.495   46.471
 ps_wavelet_solve                   252 10.4   15.065   22.760   42.617   46.032
 mp_sum_d                          9967  7.4   25.584   43.917   25.584   43.917
 xc_pw_divergence                   252 10.7    0.005    0.007   41.551   42.007
 mp_waitany                       84050 12.8   34.968   40.508   34.968   40.508
 gaVxcgb_GC                         504  9.7    0.832   39.582    0.832   39.582
 transfer_rs2pw                    1270 10.8    0.038    0.053   30.887   33.314
 xc_calc_2nd_deriv_analytical       900 10.1    1.281    1.557   32.972   33.277
 grid_collocate_task_list           254  9.8   29.403   32.400   29.403   32.400
 calculate_xc_2nd_deriv_atom        180  9.0    0.080    1.571    0.713   30.192
 calc_screening_functions             1 10.0   28.156   28.860   28.496   29.208
 transfer_pw2rs_250                 505 11.7    4.849    5.387   25.255   26.972
 put_rho0_on_grid                   253  9.7    0.356    0.520   23.748   26.222
 mp_waitall_1                    493110 13.2   18.969   25.888   18.969   25.888
 mp_alltoall_d54                    252 11.4   14.276   25.850   14.276   25.850
 mp_sum_dm                         7705 10.0   20.869   22.061   20.869   22.061
 qs_vxc_create                       72  8.0    0.001    0.001   21.851   21.853
 xc_vxc_pw_create                    72  9.0    0.149    0.209   21.850   21.852
 transfer_rs2pw_250                 508 11.8    5.152    5.592   18.834   21.565
 integrate_vhg0_rspace              252  9.4    1.075    1.207   19.772   20.169
 mp_alltoall_d45                    253 11.4   13.637   17.351   13.637   17.351
 mp_alltoall_d11v                 15932 11.6   11.984   17.309   11.984   17.309
 fft_wrap_pw1pw2_90                 506 11.9    0.098    0.160    7.406   17.286
 calculate_rho_atom_coeff           254  8.8    0.558    1.182   16.191   16.259
 transfer_pw2rs_90                  252 12.0    0.923    1.081   10.913   14.153
 sum_up_and_integrate                72  8.0    0.001    0.002   11.562   12.150
 calculate_vxc_atom                  72  8.0    0.031    0.315   11.699   11.704
 xc_rho_set_and_dset_create          73 10.0    0.181    0.244   10.417   11.599
 cp2k_distribution_to_z_slices      252 10.4    1.043    1.204    8.961   11.305
 mp_isend_dm3                     11138 12.8    7.394   10.545    7.394   10.545
 Vh_1c_gg_integrals                 252  9.4    0.095    3.361    5.329   10.416
 transfer_pw2rs_30                  252 12.0    1.084    1.240    7.842    9.115
 integrate_four_center_getP         432 10.8    0.225    0.306    6.319    7.937
 pw_integral_ab_c1d_c1d_gs          252 10.4    0.700    0.806    3.099    7.446
 transfer_rs2pw_90                  254 11.8    1.166    1.378    6.625    7.141
 gspace_mixing                       71  5.0    0.093    0.132    6.828    6.841
 cp_dbcsr_sm_fm_multiply           1126  8.6    0.014    0.016    5.730    6.066
 rs_grid_zero                      1263 11.9    4.450    4.781    4.450    4.781
 integrate_four_center_dist_KS      432 10.8    0.108    0.127    4.519    4.533
 transfer_rs2pw_30                  254 11.8    1.401    1.521    3.904    4.402
 update_ks_atom                     252  8.7    0.289    1.111    3.829    4.384
 mp_bcast_dm                       5040  9.7    3.540    4.236    3.540    4.236
 pw_derive                         2271 11.8    3.767    4.127    3.767    4.127
 dbcsr_complete_redistribute       3753 10.5    0.105    0.185    3.766    4.064
 mp_sendrecv_dv                   97028 12.8    3.577    3.960    3.577    3.960
 pw_copy                           3425 11.0    3.216    3.671    3.216    3.671
 parallel_gemm_fm                  1672  8.2    0.001    0.002    3.199    3.538
 parallel_gemm_fm_cosma            1672  9.2    3.197    3.537    3.197    3.537
 pw_gather_p                       2530 13.4    2.748    3.420    2.748    3.420
 qs_scf_new_mos                      72  5.0    0.001    0.001    3.360    3.414
 cp_fm_diag_elpa                    123  7.2    0.000    0.000    3.175    3.183
 dbcsr_multiply_generic            1558 10.3    0.039    0.051    2.969    3.148
 broyden_mixing                      71  6.0    2.901    2.940    3.016    3.040
 pw_scatter_p                      2596 12.8    2.746    3.022    2.746    3.022
 calculate_rho0_atom                759  9.7    2.689    2.854    2.689    2.854
 copy_dbcsr_to_fm                  1220  9.3    0.009    0.013    2.524    2.817
 cp_fm_diag_elpa_base               123  8.3    1.872    2.761    1.889    2.788
 tddfpt_print_nto_analysis            1  6.0    0.002    0.002    2.785    2.785
 mp_alltoall_i22                   4974 11.4    2.536    2.775    2.536    2.775
 grid_integrate_task_list           252 10.0    0.309    2.748    0.309    2.748
 eigensolver_symm                    72  6.0    0.005    0.006    2.725    2.736
 pw_copy_to_array                  2530 13.4    1.862    2.645    1.862    2.645
 mp_max_i                           723  5.1    1.210    2.584    1.210    2.584
 rs_gather_matrices                 252 10.0    0.005    0.040    0.516    2.573
 pw_poisson_set                     253 10.4    0.005    0.005    2.312    2.393
 cp_dbcsr_sm_fm_multiply_core      1126  9.6    0.002    0.002    2.089    2.244
 mp_sum_l                          5970 10.6    1.626    2.235    1.626    2.235
 copy_fm_to_dbcsr                  2531  9.6    0.007    0.008    2.021    2.171
 mp_alltoall_z11v                  1012 14.9    1.435    2.070    1.435    2.070
 fft_wrap_pw1pw2_30                 506 11.9    0.013    0.015    1.360    1.991
 cp_fm_redistribute_end             123  8.2    1.058    1.971    1.074    1.984
 cp_fm_geeig                         20  7.0    0.001    0.001    1.886    1.892
 transfer_pw2rs_10                  252 12.0    0.293    0.328    1.460    1.883
 transfer_rs2pw_10                  254 11.8    0.413    0.494    1.487    1.813
 pw_axpy                           2708 10.8    1.422    1.687    1.422    1.687
 pw_zero                           2778 10.6    1.368    1.613    1.368    1.613
 xc_functional_eval                1081 10.9    0.001    0.004    0.889    1.571
 pbe_lda_eval                      1081 11.9    0.888    1.570    0.888    1.570
 multiply_cannon                   1558 11.3    0.091    0.098    1.196    1.374
 pw_copy_from_array                2596 12.8    1.033    1.358    1.033    1.358
 integrate_four_center_load         432 10.8    0.001    0.044    0.724    1.332
 hfx_load_balance                     1 11.0    0.000    0.000    0.723    1.331
 hfx_load_balance_range               1 12.0    0.000    0.000    0.711    1.319
 tddfpt_orthonormalize_psi1_psi      10  6.9    0.010    0.011    1.287    1.287
 cp_dbcsr_plus_fm_fm_t              252  8.4    0.002    0.002    1.217    1.285
 yz_to_xz                           504 14.0    0.034    0.047    0.752    1.108
 qs_energies_init_hamiltonians        1  3.0    0.000    0.000    1.058    1.058
 build_core_hamiltonian_matrix        1  4.0    0.000    0.000    1.053    1.053
 overlap_condnum                      1  5.0    0.000    0.000    1.044    1.052
 xz_to_yz                           508 13.8    0.027    0.058    0.745    1.052
 arnoldi_conjugate_gradient           5  6.0    0.015    0.019    0.985    0.985
 mp_isendrecv_dv                 261288 12.3    0.208    0.933    0.208    0.933
 multiply_cannon_loop              1558 12.3    0.098    0.102    0.764    0.927
 tddfpt_compute_residual_vects        8  7.0    0.000    0.001    0.920    0.921
 mp_irecv_dm3                     11138 12.8    0.285    0.884    0.285    0.884
 make_m2s                          3116 11.3    0.029    0.030    0.713    0.874
 dbcsr_desymmetrize_deep           1221 10.3    0.018    0.023    0.680    0.867
 mp_rank_compare                   5126 14.1    0.733    0.848    0.733    0.848
 make_images                       3116 12.3    0.082    0.087    0.644    0.798
 pw_poisson_rebuild                 252 10.4    0.000    0.000    0.743    0.774
 ps_wavelet_create                    1 10.0    0.000    0.000    0.743    0.774
 RS_z_slice_distribution              1 11.0    0.193    0.214    0.743    0.774
 prepare_dr1dr                      900 11.1    0.541    0.737    0.541    0.737
 cp_fm_trace_a1b1t1_aa            16500  8.0    0.028    0.041    0.693    0.726
 calc_pair_dist_radii                 1 10.0    0.428    0.475    0.655    0.714
 tddfpt_apply_energy_diff             9  8.0    0.000    0.000    0.711    0.713
 tddfpt_construct_ground_state_       1  6.0    0.000    0.000    0.689    0.704
 fft_wrap_pw1pw2_10                 506 11.9    0.004    0.005    0.584    0.701
 mp_cart_sub                       2444 11.3    0.646    0.651    0.646    0.651
 mp_alltoall_i11v                 12480 11.5    0.445    0.647    0.445    0.647
 powell_optimize                 368479 11.0    0.567    0.647    0.567    0.647
 dbcsr_sym_matrix_vector_mult      4955  7.0    0.035    0.038    0.463    0.610
 multiply_cannon_metrocomm3       37392 13.3    0.052    0.055    0.313    0.576
 offload_free_buffer                260 10.2    0.392    0.524    0.392    0.524
 mp_isend_dv                     146138 13.5    0.171    0.500    0.171    0.500
 init_scf_run                         1  3.0    0.000    0.000    0.481    0.482
 make_images_sizes                 3116 13.3    0.002    0.002    0.436    0.468
 mp_alltoall_i44                   3116 14.3    0.434    0.466    0.434    0.466
 scf_env_initial_rho_setup            1  4.0    0.000    0.000    0.455    0.457
 cp_fm_triangular_invert             20  8.0    0.449    0.451    0.449    0.451
 multiply_cannon_metrocomm1       37392 13.3    0.020    0.021    0.151    0.406
 dbcsr_rep_row_to_rep_col_vec      4955  8.0    0.012    0.017    0.155    0.381
 cp_fm_cholesky_decompose            20  8.0    0.359    0.365    0.359    0.365
 tddfpt_orthogonalize_psi1_psi0      10  6.9    0.000    0.000    0.335    0.355
 mp_cart_create                    1981 10.7    0.325    0.340    0.327    0.343
 mp_allgather_i34                  1558 12.3    0.288    0.332    0.288    0.332
 scale_and_distribute               504 11.4    0.189    0.277    0.189    0.277
 xc_2nd_deriv_of_r                  720 10.0    0.001    0.033    0.007    0.273
 calculate_dm_sparse                 72  6.0    0.000    0.000    0.243    0.261
 dbcsr_col_vec_to_rep_row          4955  8.0    0.016    0.022    0.115    0.251
 dbcsr_finalize                   14929 11.3    0.020    0.044    0.125    0.232
 cp_fm_redistribute_start           123  8.2    0.179    0.189    0.211    0.232
 cp_fm_symm                          72  7.0    0.219    0.224    0.219    0.224
 cp_fm_triangular_multiply           60  8.0    0.217    0.220    0.217    0.220
 make_images_data                  3116 13.3    0.019    0.024    0.060    0.218
 rs_scatter_matrices                254  9.8    0.002    0.009    0.020    0.206
 multiply_cannon_multrec          37392 13.3    0.024    0.196    0.028    0.199
 cube_transpose_2                   508 13.8    0.009    0.011    0.117    0.192
 create_kernel_env                    1  6.0    0.000    0.000    0.150    0.172
 xc_prep_2nd_deriv                    1  7.0    0.000    0.000    0.150    0.172
 mp_bcast_b_src                     195  7.8    0.154    0.169    0.154    0.169
 pw_scale                           648  9.5    0.111    0.168    0.111    0.168
 dbcsr_add_d                       7487  7.0    0.003    0.004    0.024    0.156
 dbcsr_add_anytype                 7487  8.0    0.004    0.020    0.021    0.153
 external_control                    72  5.0    0.001    0.150    0.151    0.152
 rs_grid_create                     258 10.3    0.001    0.002    0.019    0.150
 offload_create_buffer              260 11.3    0.017    0.148    0.017    0.148
 tddfpt_is_nonorthogonal_psi1_p       8  7.0    0.000    0.000    0.148    0.148
 dbcsr_merge_all                  13087 12.4    0.057    0.118    0.084    0.148
 qs_init_subsys                       1  2.0    0.002    0.002    0.147    0.147
 mp_irecv_dv                     145130 13.5    0.084    0.144    0.084    0.144
 hybrid_alltoall_any               4337 13.5    0.019    0.025    0.041    0.141
 multiply_cannon_metrocomm4       35834 13.3    0.054    0.064    0.093    0.132
 cube_transpose_1                   504 14.0    0.008    0.010    0.083    0.129
 qs_env_setup                         1  3.0    0.000    0.000    0.125    0.126
 qs_env_rebuild_pw_env                2  3.5    0.000    0.000    0.124    0.125
 pw_env_rebuild                       1  5.0    0.000    0.000    0.124    0.125
 dbcsr_create_new                 48446 10.6    0.074    0.096    0.101    0.124
 tddfpt_compute_ritz_vects            9  7.0    0.004    0.004    0.111    0.114
 mp_bcast_dv                       5032  9.0    0.055    0.111    0.055    0.111
 -------------------------------------------------------------------------------

 The number of warnings for this run is : 1
 
 -------------------------------------------------------------------------------
  **** **** ******  **  PROGRAM ENDED AT                 2025-03-28 01:35:51.661
 ***** ** ***  *** **   PROGRAM RAN ON                     n2cn0230.ab2021.local
 **    ****   ******    PROGRAM RAN BY                                  metdyn02
 ***** **    ** ** **   PROGRAM PROCESS ID                               1911124
  **** **  *******  **  PROGRAM STOPPED IN /scratch/hpc-prf-metdyn/metdyn02_Remi
                                           /10_MOL/05_MOL/aUKBqsEOTmq69kFe5R_nOg
                                           /5k_set_final_qzvp/YOYZIV/TZVP/TDDFT/
                                           1e-4
