 DBCSR| CPU Multiplication driver                                           BLAS (U)
 DBCSR| Multrec recursion limit                                              512 (U)
 DBCSR| Multiplication stack size                                           1000 (D)
 DBCSR| Maximum elements for images                                    UNLIMITED (U)
 DBCSR| Multiplicative factor virtual images                                   1 (U)
 DBCSR| Use multiplication densification                                       T (D)
 DBCSR| Multiplication size stacks                                             3 (U)
 DBCSR| Use memory pool for CPU allocation                                     F (U)
 DBCSR| Number of 3D layers                                               SINGLE (U)
 DBCSR| Use MPI memory allocation                                              F (U)
 DBCSR| Use RMA algorithm                                                      F (U)
 DBCSR| Use Communication thread                                               T (U)
 DBCSR| Communication thread load                                             75 (D)
 DBCSR| MPI: My process id                                                     0
 DBCSR| MPI: Number of processes                                             216
 DBCSR| OMP: Current number of threads                                         4
 DBCSR| OMP: Max number of threads                                             4
 DBCSR| Split modifier for TAS multiplication algorithm                  1.0E+00 (U)


  **** **** ******  **  PROGRAM STARTED AT               2025-03-30 23:18:22.338
 ***** ** ***  *** **   PROGRAM STARTED ON                          i01r09c04s08
 **    ****   ******    PROGRAM STARTED BY                               di38fab
 ***** **    ** ** **   PROGRAM PROCESS ID                               1297139
  **** **  *******  **  PROGRAM STARTED IN /hppfs/scratch/04/di38fab/07_MOL_non_
                                           aug/05_MOL_non_aug/05_MOL/aUKBqsEOTmq
                                           69kFe5R_nOg/5k_set_final_qzvp/DTHDOM/
                                           cc-pV5Z/GW+BSE

 CP2K| version string:                 CP2K version 2025.1 (Development Version)
 CP2K| source code revision number:                                  git:d2e611a
 CP2K| cp2kflags: omp libint fftw3 libxc parallel scalapack max_contr=4         
 CP2K| is freely available from                            https://www.cp2k.org/
 CP2K| Program compiled at                       Thu 06 Mar 2025 05:09:20 PM CET
 CP2K| Program compiled on                                               login02
 CP2K| Program compiled for                                        Supermuc-foss
 CP2K| Data directory path                  /hppfs/work/pn36zo/di38fab/cp2k/data
 CP2K| Input file name                                                    GW.inp

 GLOBAL| Force Environment number                                              1
 GLOBAL| Basis set file name            /hppfs/scratch/04/di38fab/04_TMD/BASIS_A
 GLOBAL| Potential file name            /hppfs/work/pn36zo/di38fab/cp2k/data/ALL
 GLOBAL| MM Potential file name                                     MM_POTENTIAL
 GLOBAL| Coordinate file name                                      __STD_INPUT__
 GLOBAL| Method name                                                        CP2K
 GLOBAL| Project name                                                       MoS2
 GLOBAL| Run type                                                         ENERGY
 GLOBAL| FFT library                                                       FFTW3
 GLOBAL| Diagonalization library                                       ScaLAPACK
 GLOBAL| DGEMM library                                                      BLAS
 GLOBAL| Orthonormality check for eigenvectors                          DISABLED
 GLOBAL| Matrix multiplication library                                 ScaLAPACK
 GLOBAL| All-to-all communication in single precision                          F
 GLOBAL| FFTs using library dependent lengths                                  F
 GLOBAL| Grid backend                                                       AUTO
 GLOBAL| Global print level                                               MEDIUM
 GLOBAL| MPI I/O enabled                                                       T
 GLOBAL| Total number of message passing processes                           216
 GLOBAL| Number of threads for this process                                    4
 GLOBAL| This output is from process                                           0
 GLOBAL| OpenMP stack size per thread (OMP_STACKSIZE)                    default
 GLOBAL| CPU model name             Intel(R) Xeon(R) Platinum 8174 CPU @ 3.10GHz

 MEMORY| system memory details [Kb]
 MEMORY|                        rank 0           min           max       average
 MEMORY| MemTotal             98436664      98436620      98436736      98436666
 MEMORY| MemFree              84453772      83776172      84453772      84056650
 MEMORY| Buffers                     0             0             0             0
 MEMORY| Cached                2399696       2386152       2622960       2448918
 MEMORY| Slab                  1208448       1208448       1275352       1237135
 MEMORY| SReclaimable           274012        270996        283548        276608
 MEMORY| MemLikelyFree        87127480      86467928      87127480      86782176


 *** Fundamental physical constants (SI units) ***

 *** Literature: B. J. Mohr and B. N. Taylor,
 ***             CODATA recommended values of the fundamental physical
 ***             constants: 2006, Web Version 5.1
 ***             http://physics.nist.gov/constants

 Speed of light in vacuum [m/s]                             2.99792458000000E+08
 Magnetic constant or permeability of vacuum [N/A**2]       1.25663706143592E-06
 Electric constant or permittivity of vacuum [F/m]          8.85418781762039E-12
 Planck constant (h) [J*s]                                  6.62606896000000E-34
 Planck constant (h-bar) [J*s]                              1.05457162825177E-34
 Elementary charge [C]                                      1.60217648700000E-19
 Electron mass [kg]                                         9.10938215000000E-31
 Electron g factor [ ]                                     -2.00231930436220E+00
 Proton mass [kg]                                           1.67262163700000E-27
 Fine-structure constant                                    7.29735253760000E-03
 Rydberg constant [1/m]                                     1.09737315685270E+07
 Avogadro constant [1/mol]                                  6.02214179000000E+23
 Boltzmann constant [J/K]                                   1.38065040000000E-23
 Atomic mass unit [kg]                                      1.66053878200000E-27
 Bohr radius [m]                                            5.29177208590000E-11

 *** Conversion factors ***

 [u] -> [a.u.]                                              1.82288848426455E+03
 [Angstrom] -> [Bohr] = [a.u.]                              1.88972613288564E+00
 [a.u.] = [Bohr] -> [Angstrom]                              5.29177208590000E-01
 [a.u.] -> [s]                                              2.41888432650478E-17
 [a.u.] -> [fs]                                             2.41888432650478E-02
 [a.u.] -> [J]                                              4.35974393937059E-18
 [a.u.] -> [N]                                              8.23872205491840E-08
 [a.u.] -> [K]                                              3.15774647902944E+05
 [a.u.] -> [kJ/mol]                                         2.62549961709828E+03
 [a.u.] -> [kcal/mol]                                       6.27509468713739E+02
 [a.u.] -> [Pa]                                             2.94210107994716E+13
 [a.u.] -> [bar]                                            2.94210107994716E+08
 [a.u.] -> [atm]                                            2.90362800883016E+08
 [a.u.] -> [eV]                                             2.72113838565563E+01
 [a.u.] -> [Hz]                                             6.57968392072181E+15
 [a.u.] -> [1/cm] (wave numbers)                            2.19474631370540E+05
 [a.u./Bohr**2] -> [1/cm]                                   5.14048714338585E+03
 

 CELL_TOP| Volume [angstrom^3]:                                     27000.000000
 CELL_TOP| Vector a [angstrom    30.000     0.000     0.000   |a| =    30.000000
 CELL_TOP| Vector b [angstrom     0.000    30.000     0.000   |b| =    30.000000
 CELL_TOP| Vector c [angstrom     0.000     0.000    30.000   |c| =    30.000000
 CELL_TOP| Angle (b,c), alpha [degree]:                                90.000000
 CELL_TOP| Angle (a,c), beta  [degree]:                                90.000000
 CELL_TOP| Angle (a,b), gamma [degree]:                                90.000000
 CELL_TOP| Numerically orthorhombic:                                         YES
 CELL_TOP| Periodicity                                                      NONE

 GENERATE|  Preliminary Number of Bonds generated:                             0
 GENERATE|  Achieved consistency in connectivity generation.

 CELL| Volume [angstrom^3]:                                         27000.000000
 CELL| Vector a [angstrom]:      30.000     0.000     0.000   |a| =    30.000000
 CELL| Vector b [angstrom]:       0.000    30.000     0.000   |b| =    30.000000
 CELL| Vector c [angstrom]:       0.000     0.000    30.000   |c| =    30.000000
 CELL| Angle (b,c), alpha [degree]:                                    90.000000
 CELL| Angle (a,c), beta  [degree]:                                    90.000000
 CELL| Angle (a,b), gamma [degree]:                                    90.000000
 CELL| Numerically orthorhombic:                                             YES
 CELL| Periodicity                                                          NONE

 CELL_REF| Volume [angstrom^3]:                                     27000.000000
 CELL_REF| Vector a [angstrom    30.000     0.000     0.000   |a| =    30.000000
 CELL_REF| Vector b [angstrom     0.000    30.000     0.000   |b| =    30.000000
 CELL_REF| Vector c [angstrom     0.000     0.000    30.000   |c| =    30.000000
 CELL_REF| Angle (b,c), alpha [degree]:                                90.000000
 CELL_REF| Angle (a,c), beta  [degree]:                                90.000000
 CELL_REF| Angle (a,b), gamma [degree]:                                90.000000
 CELL_REF| Numerically orthorhombic:                                         YES
 CELL_REF| Periodicity                                                      NONE

 *******************************************************************************
 *******************************************************************************
 **                                                                           **
 **     #####                         ##              ##                      **
 **    ##   ##            ##          ##              ##                      **
 **   ##     ##                       ##            ######                    **
 **   ##     ##  ##   ##  ##   #####  ##  ##   ####   ##    #####    #####    **
 **   ##     ##  ##   ##  ##  ##      ## ##   ##      ##   ##   ##  ##   ##   **
 **   ##  ## ##  ##   ##  ##  ##      ####     ###    ##   ######   ######    **
 **    ##  ###   ##   ##  ##  ##      ## ##      ##   ##   ##       ##        **
 **     #######   #####   ##   #####  ##  ##  ####    ##    #####   ##        **
 **           ##                                                    ##        **
 **                                                                           **
 **                                                ... make the atoms dance   **
 **                                                                           **
 **            Copyright (C) by CP2K developers group (2000-2025)             **
 **                      J. Chem. Phys. 152, 194103 (2020)                    **
 **                                                                           **
 *******************************************************************************

 DFT| Spin restricted Kohn-Sham (RKS) calculation                            RKS
 DFT| Multiplicity                                                             1
 DFT| Number of spin states                                                    1
 DFT| Charge                                                                   0
 DFT| Self-interaction correction (SIC)                                       NO
 DFT| Cutoffs: density                                              1.000000E-10
 DFT|          gradient                                             1.000000E-10
 DFT|          tau                                                  1.000000E-10
 DFT|          cutoff_smoothing_range                               0.000000E+00
 DFT| XC density smoothing                                                  NONE
 DFT| XC derivatives                                                          PW

 FUNCTIONAL| PBE:
 FUNCTIONAL| J.P.Perdew, K.Burke, M.Ernzerhof, Phys. Rev. Letter, vol. 77, n 18,
 FUNCTIONAL|  pp. 3865-3868, (1996)sx=0.750sc=1.000{spin unpolarized}           


 QS| Method:                                                                GAPW
 QS| Density plane wave grid type                        NON-SPHERICAL FULLSPACE
 QS| Number of grid levels:                                                    4
 QS| Density cutoff [a.u.]:                                                250.0
 QS| Multi grid cutoff [a.u.]: 1) grid level                               250.0
 QS|                           2) grid level                                83.3
 QS|                           3) grid level                                27.8
 QS|                           4) grid level                                 9.3
 QS| Grid level progression factor:                                          3.0
 QS| Relative density cutoff [a.u.]:                                        50.0
 QS| Interaction thresholds: eps_pgf_orb:                                1.0E-12
 QS|                         eps_filter_matrix:                          0.0E+00
 QS|                         eps_core_charge:                            1.0E-14
 QS|                         eps_rho_gspace:                             1.0E-12
 QS|                         eps_rho_rspace:                             1.0E-12
 QS|                         eps_gvg_rspace:                             1.0E-06
 QS|                         eps_ppl:                                    1.0E-02
 QS|                         eps_ppnl:                                   1.0E-08
 QS| GAPW|      One center basis from orbital basis primitives
 QS| GAPW|                   eps_fit:                                    1.0E-04
 QS| GAPW|                   eps_iso:                                    1.0E-12
 QS| GAPW|                   eps_svd:                                    1.0E-08
 QS| GAPW|                   eps_cpc:                                    1.0E-12
 QS| GAPW|   atom-r-grid: quadrature:                                     GC_LOG
 QS| GAPW|      atom-s-grid:  max l :                                         10
 QS| GAPW|      max_l_rho0 :                                                   2


 ATOMIC KIND INFORMATION

  1. Atomic kind: O                                     Number of atoms:       2

     Orbital Basis Set                                                   cc-pV5Z

       Number of orbital shell sets:                                           6
       Number of orbital shells:                                              21
       Number of primitive Cartesian functions:                               32
       Number of Cartesian basis functions:                                  126
       Number of spherical basis functions:                                   91
       Norm type:                                                              2

       Normalised Cartesian orbitals:

                        Set   Shell   Orbital            Exponent    Coefficient

                          1       1    1px             195.500000       0.000000
                                                        46.160000       0.000000
                                                        14.580000       0.000000
                                                         5.296000       0.000000
                                                         2.094000       3.590550
                                                         0.847100       0.000000
                                                         0.336800       0.000000
                                                         0.128500       0.000000
                          1       1    1py             195.500000       0.000000
                                                        46.160000       0.000000
                                                        14.580000       0.000000
                                                         5.296000       0.000000
                                                         2.094000       3.590550
                                                         0.847100       0.000000
                                                         0.336800       0.000000
                                                         0.128500       0.000000
                          1       1    1pz             195.500000       0.000000
                                                        46.160000       0.000000
                                                        14.580000       0.000000
                                                         5.296000       0.000000
                                                         2.094000       3.590550
                                                         0.847100       0.000000
                                                         0.336800       0.000000
                                                         0.128500       0.000000

                          1       2    2px             195.500000       0.000000
                                                        46.160000       0.000000
                                                        14.580000       0.000000
                                                         5.296000       0.000000
                                                         2.094000       0.000000
                                                         0.847100       1.158400
                                                         0.336800       0.000000
                                                         0.128500       0.000000
                          1       2    2py             195.500000       0.000000
                                                        46.160000       0.000000
                                                        14.580000       0.000000
                                                         5.296000       0.000000
                                                         2.094000       0.000000
                                                         0.847100       1.158400
                                                         0.336800       0.000000
                                                         0.128500       0.000000
                          1       2    2pz             195.500000       0.000000
                                                        46.160000       0.000000
                                                        14.580000       0.000000
                                                         5.296000       0.000000
                                                         2.094000       0.000000
                                                         0.847100       1.158400
                                                         0.336800       0.000000
                                                         0.128500       0.000000

                          1       3    3px             195.500000       0.956569
                                                        46.160000       1.267066
                                                        14.580000       1.419658
                                                         5.296000       1.321897
                                                         2.094000       0.922064
                                                         0.847100       0.433170
                                                         0.336800       0.125607
                                                         0.128500       0.014224
                          1       3    3py             195.500000       0.956569
                                                        46.160000       1.267066
                                                        14.580000       1.419658
                                                         5.296000       1.321897
                                                         2.094000       0.922064
                                                         0.847100       0.433170
                                                         0.336800       0.125607
                                                         0.128500       0.014224
                          1       3    3pz             195.500000       0.956569
                                                        46.160000       1.267066
                                                        14.580000       1.419658
                                                         5.296000       1.321897
                                                         2.094000       0.922064
                                                         0.847100       0.433170
                                                         0.336800       0.125607
                                                         0.128500       0.014224

                          1       4    4px             195.500000       0.000000
                                                        46.160000       0.000000
                                                        14.580000       0.000000
                                                         5.296000       0.000000
                                                         2.094000       0.000000
                                                         0.847100       0.000000
                                                         0.336800       0.365725
                                                         0.128500       0.000000
                          1       4    4py             195.500000       0.000000
                                                        46.160000       0.000000
                                                        14.580000       0.000000
                                                         5.296000       0.000000
                                                         2.094000       0.000000
                                                         0.847100       0.000000
                                                         0.336800       0.365725
                                                         0.128500       0.000000
                          1       4    4pz             195.500000       0.000000
                                                        46.160000       0.000000
                                                        14.580000       0.000000
                                                         5.296000       0.000000
                                                         2.094000       0.000000
                                                         0.847100       0.000000
                                                         0.336800       0.365725
                                                         0.128500       0.000000

                          1       5    5px             195.500000       0.000000
                                                        46.160000       0.000000
                                                        14.580000       0.000000
                                                         5.296000       0.000000
                                                         2.094000       0.000000
                                                         0.847100       0.000000
                                                         0.336800       0.000000
                                                         0.128500       0.109665
                          1       5    5py             195.500000       0.000000
                                                        46.160000       0.000000
                                                        14.580000       0.000000
                                                         5.296000       0.000000
                                                         2.094000       0.000000
                                                         0.847100       0.000000
                                                         0.336800       0.000000
                                                         0.128500       0.109665
                          1       5    5pz             195.500000       0.000000
                                                        46.160000       0.000000
                                                        14.580000       0.000000
                                                         5.296000       0.000000
                                                         2.094000       0.000000
                                                         0.847100       0.000000
                                                         0.336800       0.000000
                                                         0.128500       0.109665

                          2       1    1s           164200.000000       0.151152
                                                     24590.000000       0.286901
                                                      5592.000000       0.495904
                                                      1582.000000       0.808436
                                                       516.100000       1.243088
                                                       187.200000       1.770469
                                                        73.930000       2.243564
                                                        31.220000       2.369157
                                                        13.810000       1.850408
                                                         6.256000       0.786713
                                                         2.776000       0.097410
                                                         1.138000       0.000835
                                                         0.460000       0.000455
                                                         0.182900      -0.000008

                          2       2    2s           164200.000000       0.000000
                                                     24590.000000       0.000000
                                                      5592.000000       0.000000
                                                      1582.000000       0.000000
                                                       516.100000       0.000000
                                                       187.200000       0.000000
                                                        73.930000       0.000000
                                                        31.220000       0.000000
                                                        13.810000       0.000000
                                                         6.256000       0.000000
                                                         2.776000       1.532762
                                                         1.138000       0.000000
                                                         0.460000       0.000000
                                                         0.182900       0.000000

                          2       3    3s           164200.000000       0.000000
                                                     24590.000000       0.000000
                                                      5592.000000       0.000000
                                                      1582.000000       0.000000
                                                       516.100000       0.000000
                                                       187.200000       0.000000
                                                        73.930000       0.000000
                                                        31.220000       0.000000
                                                        13.810000       0.000000
                                                         6.256000       0.000000
                                                         2.776000       0.000000
                                                         1.138000       0.785266
                                                         0.460000       0.000000
                                                         0.182900       0.000000

                          2       4    4s           164200.000000      -0.034881
                                                     24590.000000      -0.064378
                                                      5592.000000      -0.112454
                                                      1582.000000      -0.184320
                                                       516.100000      -0.284611
                                                       187.200000      -0.415303
                                                        73.930000      -0.546888
                                                        31.220000      -0.641477
                                                        13.810000      -0.614563
                                                         6.256000      -0.417981
                                                         2.776000       0.015182
                                                         1.138000       0.301767
                                                         0.460000       0.213695
                                                         0.182900       0.040401

                          2       5    5s           164200.000000       0.000000
                                                     24590.000000       0.000000
                                                      5592.000000       0.000000
                                                      1582.000000       0.000000
                                                       516.100000       0.000000
                                                       187.200000       0.000000
                                                        73.930000       0.000000
                                                        31.220000       0.000000
                                                        13.810000       0.000000
                                                         6.256000       0.000000
                                                         2.776000       0.000000
                                                         1.138000       0.000000
                                                         0.460000       0.398087
                                                         0.182900       0.000000

                          2       6    6s           164200.000000       0.000000
                                                     24590.000000       0.000000
                                                      5592.000000       0.000000
                                                      1582.000000       0.000000
                                                       516.100000       0.000000
                                                       187.200000       0.000000
                                                        73.930000       0.000000
                                                        31.220000       0.000000
                                                        13.810000       0.000000
                                                         6.256000       0.000000
                                                         2.776000       0.000000
                                                         1.138000       0.000000
                                                         0.460000       0.000000
                                                         0.182900       0.199329

                          3       1    1dx2              5.879000      36.533435
                                                         2.307000       0.000000
                                                         0.905000       0.000000
                                                         0.355000       0.000000
                          3       1    1dxy              5.879000      63.277766
                                                         2.307000       0.000000
                                                         0.905000       0.000000
                                                         0.355000       0.000000
                          3       1    1dxz              5.879000      63.277766
                                                         2.307000       0.000000
                                                         0.905000       0.000000
                                                         0.355000       0.000000
                          3       1    1dy2              5.879000      36.533435
                                                         2.307000       0.000000
                                                         0.905000       0.000000
                                                         0.355000       0.000000
                          3       1    1dyz              5.879000      63.277766
                                                         2.307000       0.000000
                                                         0.905000       0.000000
                                                         0.355000       0.000000
                          3       1    1dz2              5.879000      36.533435
                                                         2.307000       0.000000
                                                         0.905000       0.000000
                                                         0.355000       0.000000

                          3       2    2dx2              5.879000       0.000000
                                                         2.307000       7.107924
                                                         0.905000       0.000000
                                                         0.355000       0.000000
                          3       2    2dxy              5.879000       0.000000
                                                         2.307000      12.311285
                                                         0.905000       0.000000
                                                         0.355000       0.000000
                          3       2    2dxz              5.879000       0.000000
                                                         2.307000      12.311285
                                                         0.905000       0.000000
                                                         0.355000       0.000000
                          3       2    2dy2              5.879000       0.000000
                                                         2.307000       7.107924
                                                         0.905000       0.000000
                                                         0.355000       0.000000
                          3       2    2dyz              5.879000       0.000000
                                                         2.307000      12.311285
                                                         0.905000       0.000000
                                                         0.355000       0.000000
                          3       2    2dz2              5.879000       0.000000
                                                         2.307000       7.107924
                                                         0.905000       0.000000
                                                         0.355000       0.000000

                          3       3    3dx2              5.879000       0.000000
                                                         2.307000       0.000000
                                                         0.905000       1.382116
                                                         0.355000       0.000000
                          3       3    3dxy              5.879000       0.000000
                                                         2.307000       0.000000
                                                         0.905000       2.393895
                                                         0.355000       0.000000
                          3       3    3dxz              5.879000       0.000000
                                                         2.307000       0.000000
                                                         0.905000       2.393895
                                                         0.355000       0.000000
                          3       3    3dy2              5.879000       0.000000
                                                         2.307000       0.000000
                                                         0.905000       1.382116
                                                         0.355000       0.000000
                          3       3    3dyz              5.879000       0.000000
                                                         2.307000       0.000000
                                                         0.905000       2.393895
                                                         0.355000       0.000000
                          3       3    3dz2              5.879000       0.000000
                                                         2.307000       0.000000
                                                         0.905000       1.382116
                                                         0.355000       0.000000

                          3       4    4dx2              5.879000       0.000000
                                                         2.307000       0.000000
                                                         0.905000       0.000000
                                                         0.355000       0.268726
                          3       4    4dxy              5.879000       0.000000
                                                         2.307000       0.000000
                                                         0.905000       0.000000
                                                         0.355000       0.465446
                          3       4    4dxz              5.879000       0.000000
                                                         2.307000       0.000000
                                                         0.905000       0.000000
                                                         0.355000       0.465446
                          3       4    4dy2              5.879000       0.000000
                                                         2.307000       0.000000
                                                         0.905000       0.000000
                                                         0.355000       0.268726
                          3       4    4dyz              5.879000       0.000000
                                                         2.307000       0.000000
                                                         0.905000       0.000000
                                                         0.355000       0.465446
                          3       4    4dz2              5.879000       0.000000
                                                         2.307000       0.000000
                                                         0.905000       0.000000
                                                         0.355000       0.268726

                          4       1    1fx3              4.016000      33.611685
                                                         1.554000       0.000000
                                                         0.601000       0.000000
                          4       1    1fx2y             4.016000      75.158012
                                                         1.554000       0.000000
                                                         0.601000       0.000000
                          4       1    1fx2z             4.016000      75.158012
                                                         1.554000       0.000000
                                                         0.601000       0.000000
                          4       1    1fxy2             4.016000      75.158012
                                                         1.554000       0.000000
                                                         0.601000       0.000000
                          4       1    1fxyz             4.016000     130.177496
                                                         1.554000       0.000000
                                                         0.601000       0.000000
                          4       1    1fxz2             4.016000      75.158012
                                                         1.554000       0.000000
                                                         0.601000       0.000000
                          4       1    1fy3              4.016000      33.611685
                                                         1.554000       0.000000
                                                         0.601000       0.000000
                          4       1    1fy2z             4.016000      75.158012
                                                         1.554000       0.000000
                                                         0.601000       0.000000
                          4       1    1fyz2             4.016000      75.158012
                                                         1.554000       0.000000
                                                         0.601000       0.000000
                          4       1    1fz3              4.016000      33.611685
                                                         1.554000       0.000000
                                                         0.601000       0.000000

                          4       2    2fx3              4.016000       0.000000
                                                         1.554000       3.969349
                                                         0.601000       0.000000
                          4       2    2fx2y             4.016000       0.000000
                                                         1.554000       8.875733
                                                         0.601000       0.000000
                          4       2    2fx2z             4.016000       0.000000
                                                         1.554000       8.875733
                                                         0.601000       0.000000
                          4       2    2fxy2             4.016000       0.000000
                                                         1.554000       8.875733
                                                         0.601000       0.000000
                          4       2    2fxyz             4.016000       0.000000
                                                         1.554000      15.373221
                                                         0.601000       0.000000
                          4       2    2fxz2             4.016000       0.000000
                                                         1.554000       8.875733
                                                         0.601000       0.000000
                          4       2    2fy3              4.016000       0.000000
                                                         1.554000       3.969349
                                                         0.601000       0.000000
                          4       2    2fy2z             4.016000       0.000000
                                                         1.554000       8.875733
                                                         0.601000       0.000000
                          4       2    2fyz2             4.016000       0.000000
                                                         1.554000       8.875733
                                                         0.601000       0.000000
                          4       2    2fz3              4.016000       0.000000
                                                         1.554000       3.969349
                                                         0.601000       0.000000

                          4       3    3fx3              4.016000       0.000000
                                                         1.554000       0.000000
                                                         0.601000       0.468190
                          4       3    3fx2y             4.016000       0.000000
                                                         1.554000       0.000000
                                                         0.601000       1.046904
                          4       3    3fx2z             4.016000       0.000000
                                                         1.554000       0.000000
                                                         0.601000       1.046904
                          4       3    3fxy2             4.016000       0.000000
                                                         1.554000       0.000000
                                                         0.601000       1.046904
                          4       3    3fxyz             4.016000       0.000000
                                                         1.554000       0.000000
                                                         0.601000       1.813292
                          4       3    3fxz2             4.016000       0.000000
                                                         1.554000       0.000000
                                                         0.601000       1.046904
                          4       3    3fy3              4.016000       0.000000
                                                         1.554000       0.000000
                                                         0.601000       0.468190
                          4       3    3fy2z             4.016000       0.000000
                                                         1.554000       0.000000
                                                         0.601000       1.046904
                          4       3    3fyz2             4.016000       0.000000
                                                         1.554000       0.000000
                                                         0.601000       1.046904
                          4       3    3fz3              4.016000       0.000000
                                                         1.554000       0.000000
                                                         0.601000       0.468190

                          5       1    1gx4              3.350000      30.924924
                                                         1.189000       0.000000
                          5       1    1gx3y             3.350000      81.819659
                                                         1.189000       0.000000
                          5       1    1gx3z             3.350000      81.819659
                                                         1.189000       0.000000
                          5       1    1gx2y2            3.350000     105.628725
                                                         1.189000       0.000000
                          5       1    1gx2yz            3.350000     182.954319
                                                         1.189000       0.000000
                          5       1    1gx2z2            3.350000     105.628725
                                                         1.189000       0.000000
                          5       1    1gxy3             3.350000      81.819659
                                                         1.189000       0.000000
                          5       1    1gxy2z            3.350000     182.954319
                                                         1.189000       0.000000
                          5       1    1gxyz2            3.350000     182.954319
                                                         1.189000       0.000000
                          5       1    1gxz3             3.350000      81.819659
                                                         1.189000       0.000000
                          5       1    1gy4              3.350000      30.924924
                                                         1.189000       0.000000
                          5       1    1gy3z             3.350000      81.819659
                                                         1.189000       0.000000
                          5       1    1gy2z2            3.350000     105.628725
                                                         1.189000       0.000000
                          5       1    1gyz3             3.350000      81.819659
                                                         1.189000       0.000000
                          5       1    1gz4              3.350000      30.924924
                                                         1.189000       0.000000

                          5       2    2gx4              3.350000       0.000000
                                                         1.189000       1.791371
                          5       2    2gx3y             3.350000       0.000000
                                                         1.189000       4.739522
                          5       2    2gx3z             3.350000       0.000000
                                                         1.189000       4.739522
                          5       2    2gx2y2            3.350000       0.000000
                                                         1.189000       6.118697
                          5       2    2gx2yz            3.350000       0.000000
                                                         1.189000      10.597893
                          5       2    2gx2z2            3.350000       0.000000
                                                         1.189000       6.118697
                          5       2    2gxy3             3.350000       0.000000
                                                         1.189000       4.739522
                          5       2    2gxy2z            3.350000       0.000000
                                                         1.189000      10.597893
                          5       2    2gxyz2            3.350000       0.000000
                                                         1.189000      10.597893
                          5       2    2gxz3             3.350000       0.000000
                                                         1.189000       4.739522
                          5       2    2gy4              3.350000       0.000000
                                                         1.189000       1.791371
                          5       2    2gy3z             3.350000       0.000000
                                                         1.189000       4.739522
                          5       2    2gy2z2            3.350000       0.000000
                                                         1.189000       6.118697
                          5       2    2gyz3             3.350000       0.000000
                                                         1.189000       4.739522
                          5       2    2gz4              3.350000       0.000000
                                                         1.189000       1.791371

                          6       1    1hx5              2.319000      11.417515
                          6       1    1hx4y             2.319000      34.252546
                          6       1    1hx4z             2.319000      34.252546
                          6       1    1hx3y2            2.319000      52.321628
                          6       1    1hx3yz            2.319000      90.623718
                          6       1    1hx3z2            2.319000      52.321628
                          6       1    1hx2y3            2.319000      52.321628
                          6       1    1hx2y2z           2.319000     116.994716
                          6       1    1hx2yz2           2.319000     116.994716
                          6       1    1hx2z3            2.319000      52.321628
                          6       1    1hxy4             2.319000      34.252546
                          6       1    1hxy3z            2.319000      90.623718
                          6       1    1hxy2z2           2.319000     116.994716
                          6       1    1hxyz3            2.319000      90.623718
                          6       1    1hxz4             2.319000      34.252546
                          6       1    1hy5              2.319000      11.417515
                          6       1    1hy4z             2.319000      34.252546
                          6       1    1hy3z2            2.319000      52.321628
                          6       1    1hy2z3            2.319000      52.321628
                          6       1    1hyz4             2.319000      34.252546
                          6       1    1hz5              2.319000      11.417515

     RI Auxiliary Basis Set                                        cc-pV5Z-RIFIT

       Number of orbital shell sets:                                          39
       Number of orbital shells:                                              39
       Number of primitive Cartesian functions:                               39
       Number of Cartesian basis functions:                                  287
       Number of spherical basis functions:                                  193
       Norm type:                                                              2

       Normalised Cartesian orbitals:

                        Set   Shell   Orbital            Exponent    Coefficient

                          1       1    1s                0.251005       0.252739

                          2       1    1dx2              0.303063       0.203747
                          2       1    1dxy              0.303063       0.352901
                          2       1    1dxz              0.303063       0.352901
                          2       1    1dy2              0.303063       0.203747
                          2       1    1dyz              0.303063       0.352901
                          2       1    1dz2              0.303063       0.203747

                          3       1    1px               0.416519       0.476962
                          3       1    1py               0.416519       0.476962
                          3       1    1pz               0.416519       0.476962

                          4       1    1s                0.474911       0.407727

                          5       1    1fx3              0.621013       0.504001
                          5       1    1fx2y             0.621013       1.126979
                          5       1    1fx2z             0.621013       1.126979
                          5       1    1fxy2             0.621013       1.126979
                          5       1    1fxyz             0.621013       1.951986
                          5       1    1fxz2             0.621013       1.126979
                          5       1    1fy3              0.621013       0.504001
                          5       1    1fy2z             0.621013       1.126979
                          5       1    1fyz2             0.621013       1.126979
                          5       1    1fz3              0.621013       0.504001

                          6       1    1px               0.696641       0.907197
                          6       1    1py               0.696641       0.907197
                          6       1    1pz               0.696641       0.907197

                          7       1    1dx2              0.719024       0.924082
                          7       1    1dxy              0.719024       1.600557
                          7       1    1dxz              0.719024       1.600557
                          7       1    1dy2              0.719024       0.924082
                          7       1    1dyz              0.719024       1.600557
                          7       1    1dz2              0.719024       0.924082

                          8       1    1gx4              1.007810       1.136912
                          8       1    1gx3y             1.007810       3.007986
                          8       1    1gx3z             1.007810       3.007986
                          8       1    1gx2y2            1.007810       3.883293
                          8       1    1gx2yz            1.007810       6.726061
                          8       1    1gx2z2            1.007810       3.883293
                          8       1    1gxy3             1.007810       3.007986
                          8       1    1gxy2z            1.007810       6.726061
                          8       1    1gxyz2            1.007810       6.726061
                          8       1    1gxz3             1.007810       3.007986
                          8       1    1gy4              1.007810       1.136912
                          8       1    1gy3z             1.007810       3.007986
                          8       1    1gy2z2            1.007810       3.883293
                          8       1    1gyz3             1.007810       3.007986
                          8       1    1gz4              1.007810       1.136912

                          9       1    1s                1.058590       0.743800

                         10       1    1fx3              1.185310       2.158124
                         10       1    1fx2y             1.185310       4.825711
                         10       1    1fx2z             1.185310       4.825711
                         10       1    1fxy2             1.185310       4.825711
                         10       1    1fxyz             1.185310       8.358377
                         10       1    1fxz2             1.185310       4.825711
                         10       1    1fy3              1.185310       2.158124
                         10       1    1fy2z             1.185310       4.825711
                         10       1    1fyz2             1.185310       4.825711
                         10       1    1fz3              1.185310       2.158124

                         11       1    1px               1.274280       1.929839
                         11       1    1py               1.274280       1.929839
                         11       1    1pz               1.274280       1.929839

                         12       1    1dx2              1.442130       3.123685
                         12       1    1dxy              1.442130       5.410380
                         12       1    1dxz              1.442130       5.410380
                         12       1    1dy2              1.442130       3.123685
                         12       1    1dyz              1.442130       5.410380
                         12       1    1dz2              1.442130       3.123685

                         13       1    1hx5              1.724010       4.356106
                         13       1    1hx4y             1.724010      13.068318
                         13       1    1hx4z             1.724010      13.068318
                         13       1    1hx3y2            1.724010      19.962186
                         13       1    1hx3yz            1.724010      34.575521
                         13       1    1hx3z2            1.724010      19.962186
                         13       1    1hx2y3            1.724010      19.962186
                         13       1    1hx2y2z           1.724010      44.636805
                         13       1    1hx2yz2           1.724010      44.636805
                         13       1    1hx2z3            1.724010      19.962186
                         13       1    1hxy4             1.724010      13.068318
                         13       1    1hxy3z            1.724010      34.575521
                         13       1    1hxy2z2           1.724010      44.636805
                         13       1    1hxyz3            1.724010      34.575521
                         13       1    1hxz4             1.724010      13.068318
                         13       1    1hy5              1.724010       4.356106
                         13       1    1hy4z             1.724010      13.068318
                         13       1    1hy3z2            1.724010      19.962186
                         13       1    1hy2z3            1.724010      19.962186
                         13       1    1hyz4             1.724010      13.068318
                         13       1    1hz5              1.724010       4.356106

                         14       1    1s                1.940030       1.171565

                         15       1    1gx4              2.038250       7.886665
                         15       1    1gx3y             2.038250      20.866155
                         15       1    1gx3z             2.038250      20.866155
                         15       1    1gx2y2            2.038250      26.938091
                         15       1    1gx2yz            2.038250      46.658142
                         15       1    1gx2z2            2.038250      26.938091
                         15       1    1gxy3             2.038250      20.866155
                         15       1    1gxy2z            2.038250      46.658142
                         15       1    1gxyz2            2.038250      46.658142
                         15       1    1gxz3             2.038250      20.866155
                         15       1    1gy4              2.038250       7.886665
                         15       1    1gy3z             2.038250      20.866155
                         15       1    1gy2z2            2.038250      26.938091
                         15       1    1gyz3             2.038250      20.866155
                         15       1    1gz4              2.038250       7.886665

                         16       1    1fx3              2.093740       7.763019
                         16       1    1fx2y             2.093740      17.358638
                         16       1    1fx2z             2.093740      17.358638
                         16       1    1fxy2             2.093740      17.358638
                         16       1    1fxyz             2.093740      30.066042
                         16       1    1fxz2             2.093740      17.358638
                         16       1    1fy3              2.093740       7.763019
                         16       1    1fy2z             2.093740      17.358638
                         16       1    1fyz2             2.093740      17.358638
                         16       1    1fz3              2.093740       7.763019

                         17       1    1dx2              2.719410       9.478512
                         17       1    1dxy              2.719410      16.417264
                         17       1    1dxz              2.719410      16.417264
                         17       1    1dy2              2.719410       9.478512
                         17       1    1dyz              2.719410      16.417264
                         17       1    1dz2              2.719410       9.478512

                         18       1    1px               2.756880       5.063635
                         18       1    1py               2.756880       5.063635
                         18       1    1pz               2.756880       5.063635

                         19       1    1hx5              3.223120      33.284552
                         19       1    1hx4y             3.223120      99.853655
                         19       1    1hx4z             3.223120      99.853655
                         19       1    1hx3y2            3.223120     152.528977
                         19       1    1hx3yz            3.223120     264.187938
                         19       1    1hx3z2            3.223120     152.528977
                         19       1    1hx2y3            3.223120     152.528977
                         19       1    1hx2y2z           3.223120     341.065161
                         19       1    1hx2yz2           3.223120     341.065161
                         19       1    1hx2z3            3.223120     152.528977
                         19       1    1hxy4             3.223120      99.853655
                         19       1    1hxy3z            3.223120     264.187938
                         19       1    1hxy2z2           3.223120     341.065161
                         19       1    1hxyz3            3.223120     264.187938
                         19       1    1hxz4             3.223120      99.853655
                         19       1    1hy5              3.223120      33.284552
                         19       1    1hy4z             3.223120      99.853655
                         19       1    1hy3z2            3.223120     152.528977
                         19       1    1hy2z3            3.223120     152.528977
                         19       1    1hyz4             3.223120      99.853655
                         19       1    1hz5              3.223120      33.284552

                         20       1    1ix6              3.261230      37.658080
                         20       1    1ix5y             3.261230     124.897723
                         20       1    1ix5z             3.261230     124.897723
                         20       1    1ix4y2            3.261230     216.329201
                         20       1    1ix4yz            3.261230     374.693168
                         20       1    1ix4z2            3.261230     216.329201
                         20       1    1ix3y3            3.261230     255.964163
                         20       1    1ix3y2z           3.261230     572.353268
                         20       1    1ix3yz2           3.261230     572.353268
                         20       1    1ix3z3            3.261230     255.964163
                         20       1    1ix2y4            3.261230     216.329201
                         20       1    1ix2y3z           3.261230     572.353268
                         20       1    1ix2y2z2          3.261230     738.904892
                         20       1    1ix2yz3           3.261230     572.353268
                         20       1    1ix2z4            3.261230     216.329201
                         20       1    1ixy5             3.261230     124.897723
                         20       1    1ixy4z            3.261230     374.693168
                         20       1    1ixy3z2           3.261230     572.353268
                         20       1    1ixy2z3           3.261230     572.353268
                         20       1    1ixyz4            3.261230     374.693168
                         20       1    1ixz5             3.261230     124.897723
                         20       1    1iy6              3.261230      37.658080
                         20       1    1iy5z             3.261230     124.897723
                         20       1    1iy4z2            3.261230     216.329201
                         20       1    1iy3z3            3.261230     255.964163
                         20       1    1iy2z4            3.261230     216.329201
                         20       1    1iyz5             3.261230     124.897723
                         20       1    1iz6              3.261230      37.658080

                         21       1    1s                3.595370       1.860878

                         22       1    1fx3              3.721040      28.310609
                         22       1    1fx2y             3.721040      63.304446
                         22       1    1fx2z             3.721040      63.304446
                         22       1    1fxy2             3.721040      63.304446
                         22       1    1fxyz             3.721040     109.646517
                         22       1    1fxz2             3.721040      63.304446
                         22       1    1fy3              3.721040      28.310609
                         22       1    1fy2z             3.721040      63.304446
                         22       1    1fyz2             3.721040      63.304446
                         22       1    1fz3              3.721040      28.310609

                         23       1    1gx4              3.883140      46.418255
                         23       1    1gx3y             3.883140     122.811159
                         23       1    1gx3z             3.883140     122.811159
                         23       1    1gx2y2            3.883140     158.548524
                         23       1    1gx2yz            3.883140     274.614099
                         23       1    1gx2z2            3.883140     158.548524
                         23       1    1gxy3             3.883140     122.811159
                         23       1    1gxy2z            3.883140     274.614099
                         23       1    1gxyz2            3.883140     274.614099
                         23       1    1gxz3             3.883140     122.811159
                         23       1    1gy4              3.883140      46.418255
                         23       1    1gy3z             3.883140     122.811159
                         23       1    1gy2z2            3.883140     158.548524
                         23       1    1gyz3             3.883140     122.811159
                         23       1    1gz4              3.883140      46.418255

                         24       1    1dx2              4.518780      23.051360
                         24       1    1dxy              4.518780      39.926127
                         24       1    1dxz              4.518780      39.926127
                         24       1    1dy2              4.518780      23.051360
                         24       1    1dyz              4.518780      39.926127
                         24       1    1dz2              4.518780      23.051360

                         25       1    1px               4.708760       9.887199
                         25       1    1py               4.708760       9.887199
                         25       1    1pz               4.708760       9.887199

                         26       1    1hx5              5.427550     181.053374
                         26       1    1hx4y             5.427550     543.160123
                         26       1    1hx4z             5.427550     543.160123
                         26       1    1hx3y2            5.427550     829.690793
                         26       1    1hx3yz            5.427550    1437.066608
                         26       1    1hx3z2            5.427550     829.690793
                         26       1    1hx2y3            5.427550     829.690793
                         26       1    1hx2y2z           5.427550    1855.245014
                         26       1    1hx2yz2           5.427550    1855.245014
                         26       1    1hx2z3            5.427550     829.690793
                         26       1    1hxy4             5.427550     543.160123
                         26       1    1hxy3z            5.427550    1437.066608
                         26       1    1hxy2z2           5.427550    1855.245014
                         26       1    1hxyz3            5.427550    1437.066608
                         26       1    1hxz4             5.427550     543.160123
                         26       1    1hy5              5.427550     181.053374
                         26       1    1hy4z             5.427550     543.160123
                         26       1    1hy3z2            5.427550     829.690793
                         26       1    1hy2z3            5.427550     829.690793
                         26       1    1hyz4             5.427550     543.160123
                         26       1    1hz5              5.427550     181.053374

                         27       1    1s                5.831540       2.674530

                         28       1    1fx3              6.442910      97.361912
                         28       1    1fx2y             6.442910     217.707854
                         28       1    1fx2z             6.442910     217.707854
                         28       1    1fxy2             6.442910     217.707854
                         28       1    1fxyz             6.442910     377.081065
                         28       1    1fxz2             6.442910     217.707854
                         28       1    1fy3              6.442910      97.361912
                         28       1    1fy2z             6.442910     217.707854
                         28       1    1fyz2             6.442910     217.707854
                         28       1    1fz3              6.442910      97.361912

                         29       1    1gx4              7.014070     235.968042
                         29       1    1gx3y             7.014070     624.312756
                         29       1    1gx3z             7.014070     624.312756
                         29       1    1gx2y2            7.014070     805.984303
                         29       1    1gx2yz            7.014070    1396.005762
                         29       1    1gx2z2            7.014070     805.984303
                         29       1    1gxy3             7.014070     624.312756
                         29       1    1gxy2z            7.014070    1396.005762
                         29       1    1gxyz2            7.014070    1396.005762
                         29       1    1gxz3             7.014070     624.312756
                         29       1    1gy4              7.014070     235.968042
                         29       1    1gy3z             7.014070     624.312756
                         29       1    1gy2z2            7.014070     805.984303
                         29       1    1gyz3             7.014070     624.312756
                         29       1    1gz4              7.014070     235.968042

                         30       1    1dx2              7.274420      53.034271
                         30       1    1dxy              7.274420      91.858053
                         30       1    1dxz              7.274420      91.858053
                         30       1    1dy2              7.274420      53.034271
                         30       1    1dyz              7.274420      91.858053
                         30       1    1dz2              7.274420      53.034271

                         31       1    1px              11.049300      28.714982
                         31       1    1py              11.049300      28.714982
                         31       1    1pz              11.049300      28.714982

                         32       1    1fx3             14.098700     567.031722
                         32       1    1fx2y            14.098700    1267.921477
                         32       1    1fx2z            14.098700    1267.921477
                         32       1    1fxy2            14.098700    1267.921477
                         32       1    1fxyz            14.098700    2196.104418
                         32       1    1fxz2            14.098700    1267.921477
                         32       1    1fy3             14.098700     567.031722
                         32       1    1fy2z            14.098700    1267.921477
                         32       1    1fyz2            14.098700    1267.921477
                         32       1    1fz3             14.098700     567.031722

                         33       1    1s               14.825500       5.384769

                         34       1    1dx2             21.988200     367.486504
                         34       1    1dxy             21.988200     636.505295
                         34       1    1dxz             21.988200     636.505295
                         34       1    1dy2             21.988200     367.486504
                         34       1    1dyz             21.988200     636.505295
                         34       1    1dz2             21.988200     367.486504

                         35       1    1px              25.465100      81.540209
                         35       1    1py              25.465100      81.540209
                         35       1    1pz              25.465100      81.540209

                         36       1    1s               28.708200       8.839233

                         37       1    1px              94.256600     418.629472
                         37       1    1py              94.256600     418.629472
                         37       1    1pz              94.256600     418.629472

                         38       1    1s              105.279000      23.424288

                         39       1    1s              488.561000      74.062640

       Atomic covalent radius [Angstrom]:                                  0.730

       Atomic van der Waals radius [Angstrom]:                             1.520

     The atoms of this atomic kind are PAW atoms (GAPW):
       Hard Gaussian function radius:                                      1.512
       Rho0 radius:                                                        1.512
       Maximum GTO radius used for PAW projector construction:            24.566

     GAPW Soft Basis Set                                            cc-pV5Z_soft

       Number of orbital shell sets:                                           6
       Number of orbital shells:                                              21
       Number of primitive Cartesian functions:                               17
       Number of Cartesian basis functions:                                  126
       Number of spherical basis functions:                                   91
       Norm type:                                                              2

       Normalised Cartesian orbitals:

                        Set   Shell   Orbital            Exponent    Coefficient

                          1       1    1px               2.094000       3.590550
                                                         0.847100       0.000000
                                                         0.336800       0.000000
                                                         0.128500       0.000000
                          1       1    1py               2.094000       3.590550
                                                         0.847100       0.000000
[...]
 https://doi.org/10.1063/1.2931945

 L. Genovese, T. Deutsch, S. Goedecker.
 J. Chem. Phys. 127, 054704 (2007).
 Efficient and accurate three-dimensional Poisson solver for surface problems.
 https://doi.org/10.1063/1.2754685

 J. VandeVondele, J. Hutter.
 J. Chem. Phys. 127, 114105 (2007).
 Gaussian basis sets for accurate calculations on molecular systems in gas and 
 condensed phases.
 https://doi.org/10.1063/1.2770708

 L. Genovese, T. Deutsch, A. Neelov, S. Goedecker, G. Beylkin.
 J. Chem. Phys. 125, 074105 (2006).
 Efficient solution of Poisson's equation with free boundary conditions.
 https://doi.org/10.1063/1.2335442

 M. Frigo, S. G. Johnson.
 Proc. IEEE 93, 216-231 (2005).
 The design and implementation of FFTW3.
 https://doi.org/10.1109/JPROC.2004.840301

 M. Krack, M. Parrinello.
 Phys. Chem. Chem. Phys. 2, 2105-2112 (2000).
 All-electron ab-initio molecular dynamics.
 https://doi.org/10.1039/b001167n

 G. Lippert, J. Hutter, M. Parrinello.
 Theor. Chem. Acc. 103, 124-140 (1999).
 The Gaussian and augmented-plane-wave density functional method for ab initio 
 molecular dynamics simulations.
 https://doi.org/10.1007/s002140050523

 J. P. Perdew, K. Burke, M. Ernzerhof.
 Phys. Rev. Lett. 77, 3865-3868 (1996).
 Generalized gradient approximation made simple.
 https://doi.org/10.1103/PhysRevLett.77.3865


 -------------------------------------------------------------------------------
 -                                                                             -
 -                                T I M I N G                                  -
 -                                                                             -
 -------------------------------------------------------------------------------
 SUBROUTINE                       CALLS  ASD         SELF TIME        TOTAL TIME
                                MAXIMUM       AVERAGE  MAXIMUM  AVERAGE  MAXIMUM
 CP2K                                 1  1.0    0.032    0.057 4099.085 4099.085
 qs_energies                          1  2.0    0.001    0.001 4095.105 4095.325
 mp2_main                             1  3.0    0.000    0.001 3047.662 3047.882
 mp2_gpw_main                         1  4.0    0.000    0.001 3044.433 3044.497
 rpa_ri_compute_en                    1  5.0    0.001    0.002 2995.051 2995.055
 rpa_num_int                          1  6.0    0.002    0.002 2991.038 2991.341
 compute_GW_self_energy             100  7.0    0.010    0.022 2158.929 2167.585
 compute_GW_self_energy_deep        100  8.0 1209.841 1211.094 2155.634 2164.290
 parallel_gemm_fm                   355  8.5    0.001    0.001 1127.936 1135.906
 parallel_gemm_fm_gemm              355  9.5    0.001    0.001 1127.935 1135.905
 cp_fm_gemm                         355 10.5 1127.934 1135.904 1127.934 1135.904
 scf_env_do_scf                       1  3.0    0.000    0.000 1042.887 1042.900
 scf_env_do_scf_inner_loop           67  4.0    0.002    0.005 1042.887 1042.900
 qs_ks_build_kohn_sham_matrix        68  7.0    0.010    0.012 1003.278 1003.364
 qs_ks_update_qs_env                 67  5.0    0.000    0.001 1000.689 1000.775
 rebuild_ks_matrix                   67  6.0    0.000    0.000 1000.677 1000.762
 hfx_ks_matrix                       68  8.0    0.003    0.003  902.410  902.655
 integrate_four_center               68  9.0    3.159    4.694  902.404  902.651
 start_bse_calculation                1  7.0    0.001    0.002  807.445  807.447
 integrate_four_center_main          68 10.0    2.618    6.586  536.409  706.400
 integrate_four_center_bin        13101 11.0  533.791  702.238  533.791  702.238
 cp_fm_syevd                         73  7.0    0.001    0.001  626.902  627.319
 cp_fm_redistribute_end              73  8.0  313.361  626.831  313.740  626.892
 cp_fm_syevd_base                    73  8.0  312.410  625.045  312.410  625.045
 create_hermitian_form_of_ABBA        1  8.0    0.001    0.002  417.378  417.498
 diagonalize_C                        1  8.0    0.002    0.004  366.343  366.366
 cp_fm_power                          2  7.5    0.908    0.990  327.688  328.140
 mp_sync                            773  9.4  197.661  267.734  197.661  267.734
 calc_screening_functions             1 10.0  148.109  154.336  156.105  162.344
 mp2_ri_gpw_compute_in                1  5.0    0.051    0.070   49.247   49.256
 mp2_ri_gpw_compute_in_loop           1  6.0    0.000    0.001   49.054   49.077
 contract_B_L                         4  7.0    0.170    0.189   34.543   43.992
 mp2_eri_3c_integrate                 1  7.0    0.051    0.067   11.362   33.295
 integrate_set_3c                 28637  8.0   10.413   31.059   11.311   33.238
 mp_cart_create                     540 10.0   22.440   31.890   22.440   31.891
 dbt_pgrid_create_expert             84 10.8    0.000    0.000   22.407   31.850
 sum_up_and_integrate                68  8.0    0.001    0.001   24.450   25.085
 integrate_v_rspace                  68  9.0    0.002    0.002   24.425   25.063
 qs_rho_update_rho_low               68  5.0    0.001    0.001   22.573   22.576
 fft_wrap_pw1pw2                   1419  9.9    0.022    0.032   21.460   22.076
 prepare_gapw_den                    68  8.0    0.002    0.003   21.498   21.554
 fft_wrap_pw1pw2_250               1011 11.1    0.695    0.753   20.315   20.901
 mp_alltoall_d11v                  1424  9.6   19.378   20.866   19.378   20.866
 mp_sum_d                         16437  6.9   17.979   20.527   17.979   20.527
 calculate_rho_elec                  68  6.0    0.148    0.159   20.218   20.221
 pw_poisson_solve                    68  8.0    0.398    0.427   19.553   19.566
 fft3d_ps                          1419 11.9    6.693    7.191   18.500   19.079
 rs_gather_matrices                  68 10.0    0.009    0.031   17.435   18.133
 grid_integrate_task_list            68 10.0    0.678   17.864    0.678   17.864
 cp_fm_syrk                           2  8.5   17.564   17.727   17.564   17.727
 calculate_rho_atom                 272  9.0    3.297   16.916    3.297   16.917
 density_rs2pw                       68  7.0    0.004    0.004   15.450   16.722
 mp_sum_dv                        41254  9.8   14.922   15.616   14.922   15.616
 rpa_num_int_RPA_matrix_operati     100  7.0    0.001    0.003   15.565   15.566
 calculate_vxc_atom                  68  8.0    0.067    1.005   15.541   15.542
 transfer_rs2pw                     341  8.4    0.006    0.011   13.724   15.001
 qs_scf_new_mos                      67  5.0    0.001    0.001   14.735   14.790
 powell_optimize                5644890 11.0   14.084   14.756   14.084   14.756
 gaVxcgb_GC                         134  9.0    0.306   14.356    0.306   14.356
 ps_wavelet_solve                    68  9.0    6.705    9.730   14.137   14.194
 calc_mat_Q                         100  8.0    0.000    0.001   13.798   13.898
 contract_S_to_Q                    100  9.0    0.001    0.001   13.745   13.846
 eigensolver_symm                    68  6.0    0.003    0.004   13.444   13.455
 mp_waitany                       17220 11.5   11.999   13.388   11.999   13.388
 mp_alltoall_z22v                  1419 13.9   10.204   13.033   10.204   13.033
 grid_collocate_task_list            68  7.0    4.233   12.871    4.233   12.871
 create_B                             1  8.0    0.000    0.001   12.483   12.701
 transfer_rs2pw_250                 137 10.0    1.201    1.333    9.852   12.252
 qs_vxc_create                       68  8.0    0.001    0.001   11.976   11.977
 xc_vxc_pw_create                    67  9.0    0.188    0.215   11.975   11.976
 dbt_total                            8  8.0    0.000    0.000   11.632   11.632
 dbt_contract                         4  9.0    0.001    0.001   10.755   10.800
 mp_sum_l                          1090  6.5    6.360   10.499    6.360   10.499
 integrate_four_center_load          68 10.0    0.000    0.001    6.296   10.432
 hfx_load_balance                     1 11.0    0.000    0.000    6.296   10.432
 hfx_load_balance_range               1 12.0    0.000    0.000    6.267   10.403
 create_A                             1  8.0    0.009    0.014    9.874    9.926
 xc_pw_derive                       402 11.0    0.003    0.004    9.122    9.724
 calc_pair_dist_radii                 1 10.0    3.051    3.176    9.139    9.555
 dbt_tas_multiply                     8 11.5    0.000    0.000    9.363    9.363
 dbt_tas_total                        8 12.5    0.005    0.016    9.362    9.362
 mp_alltoall_d54                     68 10.0    3.702    9.191    3.702    9.191
 dbt_tas_dbm                          8 13.5    0.000    0.000    8.516    8.516
 dbm_multiply                         8 15.5    7.581    8.410    7.581    8.410
 dbt_tas_mm_1N                        6 14.5    0.000    0.000    7.563    8.391
 yz_to_x                            541 13.2    0.471    0.582    5.782    7.694
 potential_pw2rs                     68 10.0    0.014    0.019    6.310    6.928
 xc_pw_divergence                    67 10.0    0.002    0.002    6.178    6.749
 mp_waitall_1                     72478 12.0    5.186    6.323    5.186    6.323
 transfer_pw2rs                     341 10.6    0.005    0.008    5.845    5.994
 x_to_yz                            606 12.9    0.713    0.806    5.558    5.854
 xc_rho_set_and_dset_create          67 10.0    0.151    0.201    5.464    5.776
 gspace_mixing                       66  5.0    0.143    0.154    5.192    5.193
 integrate_vhg0_rspace               68  8.0    0.721    0.779    4.833    4.920
 mp_sum_dm                         3336  7.6    4.421    4.568    4.421    4.568
 mp_alltoall_d45                     69 10.0    3.753    4.428    3.753    4.428
 transfer_rs2pw_90                   68  9.0    0.207    0.268    1.960    4.352
 create_integ_mat                     4  6.0    0.013    0.026    3.970    4.331
 array2fm                             4  7.0    0.000    0.000    3.641    4.207
 fm_general_add_bse                   5 10.2    0.000    0.000    3.895    4.038
 qs_energies_init_hamiltonians        1  3.0    0.000    0.000    3.866    3.866
 build_core_hamiltonian_matrix        1  4.0    0.000    0.000    3.850    3.850
 overlap_condnum                      1  5.0    0.000    0.001    3.797    3.848
 broyden_mixing                      66  6.0    3.578    3.683    3.702    3.777
 arnoldi_conjugate_gradient           5  6.0    0.068    0.084    3.473    3.473
 put_rho0_on_grid                    68  9.0    0.160    0.208    3.373    3.428
 transfer_pw2rs_250                 137 10.9    1.040    1.153    3.203    3.380
 cp_fm_cholesky_invert              101  8.0    3.198    3.257    3.198    3.257
 compute_vec_Sigma_x_minus_vxc_       1  4.0    0.000    0.000    2.634    2.634
 create_qs_kind_set                   1  2.0    0.000    0.000    2.619    2.620
 read_qs_kind                         4  3.0    1.486    1.509    2.619    2.620
 dbcsr_multiply_generic             160  8.1    0.010    0.012    2.309    2.503
 integrate_four_center_getP          68 10.0    0.122    0.128    2.336    2.363
 calculate_rho_atom_coeff            68  6.0    0.111    0.225    2.354    2.355
 mp_isendrecv_dv                  58480 12.0    0.908    2.339    0.908    2.339
 dbcsr_sym_matrix_vector_mult     10015  7.0    0.159    0.176    2.018    2.333
 abc_contract                     28637  9.0    0.898    2.303    0.898    2.303
 integrate_four_center_dist_KS       68 10.0    0.085    0.092    2.278    2.283
 dbt_copy                            12 10.1    0.001    0.001    2.069    2.206
 cp_fm_cholesky_decompose           102  9.0    1.832    2.079    1.832    2.079
 cp_fm_uplo_to_full                 103  8.0    1.491    1.960    1.491    1.960
 dbt_tas_estimate_result_nze          4 12.0    0.041    0.056    1.799    1.800
 array2fm_info                        4  8.0    1.503    1.724    1.527    1.737
 copy_dbcsr_to_fm                   122  6.8    0.003    0.003    1.551    1.685
 array2fm_fill                        4  8.0    0.537    0.660    1.080    1.666
 compute_Erpa_by_freq_int           100  8.0    0.003    0.003    1.549    1.551
 multiply_cannon                    160  9.1    0.019    0.021    1.375    1.543
 transfer_rs2pw_30                   68  9.0    0.644    0.684    1.458    1.506
 transfer_pw2rs_30                   68 12.0    0.623    0.678    1.404    1.497
 multiply_cannon_loop               160 10.1    0.018    0.020    1.320    1.480
 dbt_reshape                          8 11.6    0.323    0.385    1.291    1.395
 hybrid_alltoall_any                444 11.1    0.562    0.615    1.278    1.342
 multiply_cannon_multrec           2680 11.1    1.127    1.282    1.135    1.290
 cp_fm_redistribute_start            73  8.0    0.502    0.886    0.752    1.262
 Vh_1c_gg_integrals                  68  8.0    0.036    1.041    1.079    1.235
 calculate_rho0_atom                272  9.0    1.138    1.234    1.138    1.234
 mp_bcast_dv                      10088  9.0    0.627    1.223    0.627    1.223
 cp_fm_to_fm_submat_general         112 10.1    0.645    1.214    0.645    1.214
 mult_B_with_W                        1  8.0    0.000    0.000    0.946    1.193
 xc_functional_eval                 335 10.9    0.001    0.002    0.900    1.182
 pbe_lda_eval                       335 11.9    0.899    1.181    0.899    1.181
 mp_sendrecv_dv                   29240 10.0    1.098    1.164    1.098    1.164
 parser_read_line                315512  4.0    0.107    0.115    1.133    1.159
 dbcsr_rep_row_to_rep_col_vec     10015  8.0    0.056    0.078    0.489    1.139
 pw_scatter_p                       742 12.1    0.970    1.105    0.970    1.105
 rs_grid_zero                       342 11.2    1.016    1.052    1.016    1.052
 parser_read_line_low               338  5.0    0.094    0.460    1.026    1.051
 mp_wait                            127  9.0    0.543    1.048    0.543    1.048
 qs_init_subsys                       1  2.0    0.009    0.010    1.025    1.025
 ao_to_mo_and_store_B_mult_gw_1      11  7.0    0.000    0.000    0.856    1.017
 fm_general_add_bse_4_buf_from_       1 10.0    0.881    1.015    0.881    1.015
 mp_waitall_2                        50 15.7    0.922    1.013    0.922    1.013
 dbcsr_complete_redistribute        260  8.5    0.225    0.286    0.912    1.003
 broadcast_input_information        338  6.0    0.231    0.259    0.933    0.995
 fm_general_add_bse_4_buf_from_       1 10.0    0.805    0.990    0.805    0.990
 dbcsr_desymmetrize_deep            124  7.8    0.057    0.064    0.931    0.970
 array2fm_buffer_send                 4  8.0    0.876    0.957    0.876    0.957
 ao_to_mo_and_store_B_mult_bse_      11  7.0    0.000    0.000    0.820    0.947
 pw_gather_p                        677 11.8    0.753    0.926    0.753    0.926
 dbt_communicate_buffer               8 12.6    0.003    0.003    0.849    0.920
 dbcsr_add_d                      15075  7.0    0.014    0.016    0.134    0.916
 cp2k_distribution_to_z_slices       68  9.0    0.314    0.346    0.751    0.912
 fm_general_add_bse_1_setup           5 11.2    0.827    0.909    0.827    0.909
 make_m2s                           320  9.1    0.007    0.007    0.847    0.903
 dbcsr_add_anytype                15075  8.0    0.018    0.121    0.120    0.901
 qs_env_setup                         1  3.0    0.000    0.000    0.866    0.899
 qs_env_rebuild_pw_env                2  3.5    0.000    0.000    0.865    0.897
 pw_env_rebuild                       1  5.0    0.001    0.001    0.865    0.897
 transfer_pw2rs_90                   68 12.0    0.199    0.224    0.799    0.868
 make_images                        320 10.1    0.114    0.128    0.801    0.856
 fm_general_add_bse_5_comm_buff       5 11.2    0.000    0.000    0.570    0.838
 communicate_buffer                   5 12.2    0.001    0.001    0.570    0.838
 fft_wrap_pw1pw2_90                 136 10.5    0.021    0.036    0.707    0.802
 dbt_remap                            8 10.0    0.002    0.002    0.753    0.753
 dbcsr_col_vec_to_rep_row         10015  8.0    0.073    0.100    0.553    0.744
 allocate_matrices_gw                 1  7.0    0.002    0.003    0.430    0.731
 dbt_split_blocks_generic            20  8.8    0.347    0.372    0.682    0.726
 truncate_BSE_matrices                1  8.0    0.000    0.001    0.411    0.710
 mp_sum_iv                          361  9.6    0.389    0.707    0.389    0.707
 pw_derive                          606 11.3    0.663    0.706    0.663    0.706
 dbcsr_finalize                   16670 10.3    0.018    0.182    0.211    0.701
 get_vec_sigma_x                      1  8.0    0.001    0.002    0.387    0.688
 compute_max_radius                   1  6.0    0.291    0.676    0.291    0.676
 calculate_dm_sparse                 67  6.0    0.001    0.001    0.610    0.661
 ao_to_mo_and_store_B_E_Ex_gw_1      11  7.0    0.276    0.345    0.614    0.659
 cp_dbcsr_plus_fm_fm_t               67  7.0    0.001    0.001    0.609    0.659
 make_images_data                   320 11.1    0.005    0.005    0.583    0.643
 mp_irecv_dm3                      2460 11.5    0.177    0.637    0.177    0.637
 init_scf_run                         1  3.0    0.000    0.000    0.616    0.616
 pw_poisson_rebuild                  68  9.0    0.000    0.000    0.591    0.614
 ps_wavelet_create                    1 10.0    0.000    0.000    0.590    0.614
 RS_z_slice_distribution              1 11.0    0.499    0.575    0.590    0.614
 cp_fm_create                       357  7.8    0.459    0.605    0.459    0.605
 update_ks_atom                      68  8.0    0.079    0.164    0.451    0.591
 ao_to_mo_and_store_B_E_Ex_bse_      11  7.0    0.229    0.268    0.530    0.566
 pw_copy                           1015 10.6    0.517    0.566    0.517    0.566
 dbt_tas_replicate                    8 13.5    0.218    0.267    0.489    0.505
 cp_fm_symm                          68  7.0    0.491    0.504    0.491    0.504
 dbt_split_copyback                   4 10.0    0.370    0.403    0.466    0.502
 dbcsr_sym_matrix_vector_mult_l   10015  8.0    0.099    0.472    0.130    0.500
 array2fm_waitall                     4  8.0    0.000    0.007    0.026    0.477
 mp_bcast_am_src                    338  7.0    0.380    0.436    0.411    0.473
 mp_bcast_i_src                    1352  7.0    0.278    0.468    0.278    0.468
 dbm_reserve_blocks                  68 14.1    0.426    0.465    0.426    0.465
 transfer_rs2pw_10                   68  9.0    0.164    0.176    0.448    0.456
 mp_isend_dv                      23906 12.2    0.251    0.450    0.251    0.450
 transfer_pw2rs_10                   68 12.0    0.162    0.189    0.434    0.450
 scf_env_initial_rho_setup            1  4.0    0.000    0.000    0.431    0.432
 mp_bcast_dm                       2176  9.0    0.372    0.432    0.372    0.432
 fm_general_add_bse_3_alloc_buf       5 11.2    0.252    0.431    0.252    0.431
 dbcsr_merge_all                  15836 10.9    0.024    0.220    0.182    0.425
 dbt_tas_reserve_blocks_index        60 13.0    0.006    0.008    0.381    0.421
 pw_poisson_set                      69  8.9    0.002    0.002    0.406    0.420
 -------------------------------------------------------------------------------

 The number of warnings for this run is : 2
 
 -------------------------------------------------------------------------------
  **** **** ******  **  PROGRAM ENDED AT                 2025-03-31 00:26:41.992
 ***** ** ***  *** **   PROGRAM RAN ON                              i01r09c04s08
 **    ****   ******    PROGRAM RAN BY                                   di38fab
 ***** **    ** ** **   PROGRAM PROCESS ID                               1297139
  **** **  *******  **  PROGRAM STOPPED IN /hppfs/scratch/04/di38fab/07_MOL_non_
                                           aug/05_MOL_non_aug/05_MOL/aUKBqsEOTmq
                                           69kFe5R_nOg/5k_set_final_qzvp/DTHDOM/
                                           cc-pV5Z/GW+BSE
