SIRIUS 7.5.2, git hash: https://api.github.com/repos/electronic-structure/SIRIUS/git/ref/tags/v7.5.2
 DBCSR| CPU Multiplication driver                                           XSMM (U)
 DBCSR| Multrec recursion limit                                              512 (U)
 DBCSR| Multiplication stack size                                           1000 (D)
 DBCSR| Maximum elements for images                                    UNLIMITED (U)
 DBCSR| Multiplicative factor virtual images                                   1 (U)
 DBCSR| Use multiplication densification                                       T (D)
 DBCSR| Multiplication size stacks                                             3 (U)
 DBCSR| Use memory pool for CPU allocation                                     F (U)
 DBCSR| Number of 3D layers                                               SINGLE (U)
 DBCSR| Use MPI memory allocation                                              F (U)
 DBCSR| Use RMA algorithm                                                      F (U)
 DBCSR| Use Communication thread                                               T (U)
 DBCSR| Communication thread load                                             75 (D)
 DBCSR| MPI: My process id                                                     0
 DBCSR| MPI: Number of processes                                             192
 DBCSR| OMP: Current number of threads                                         4
 DBCSR| OMP: Max number of threads                                             4
 DBCSR| Split modifier for TAS multiplication algorithm                  1.0E+00 (U)


  **** **** ******  **  PROGRAM STARTED AT               2025-03-27 06:02:42.020
 ***** ** ***  *** **   PROGRAM STARTED ON                 n2cn0221.ab2021.local
 **    ****   ******    PROGRAM STARTED BY                              metdyn02
 ***** **    ** ** **   PROGRAM PROCESS ID                               1910800
  **** **  *******  **  PROGRAM STARTED IN /scratch/hpc-prf-metdyn/metdyn02_Remi
                                           /10_MOL/05_MOL/aUKBqsEOTmq69kFe5R_nOg
                                           /5k_set_final_qzvp/REHKOE/SZV/TDDFT/1
                                           e-4

 CP2K| version string:                 CP2K version 2025.1 (Development Version)
 CP2K| source code revision number:                                  git:9754b87
 CP2K| cp2kflags: omp libint fftw3 libxc libgrpp elpa parallel scalapack mpi_f08
 CP2K|             cosma xsmm plumed2 spglib sirius libvori libbqb libvdwxc hdf5
 CP2K| is freely available from                            https://www.cp2k.org/
 CP2K| Program compiled at                          Sun Mar 23 00:44:01 CET 2025
 CP2K| Program compiled on                                              n2login1
 CP2K| Program compiled for                                                local
 CP2K| Data directory path    /opt/software/pc2/EB-SW/software/CP2K/2024.1-foss-
 CP2K| Input file name                                                    GW.inp

 GLOBAL| Force Environment number                                              1
 GLOBAL| Basis set file name            /scratch/hpc-prf-metdyn/metdyn02_Remi/BA
 GLOBAL| Potential file name            /pc2/groups/hpc-prf-metdyn/metdyn02_Remi
 GLOBAL| MM Potential file name                                     MM_POTENTIAL
 GLOBAL| Coordinate file name                                      __STD_INPUT__
 GLOBAL| Method name                                                        CP2K
 GLOBAL| Project name                                                       MoS2
 GLOBAL| Run type                                                         ENERGY
 GLOBAL| FFT library                                                       FFTW3
 GLOBAL| Diagonalization library                                            ELPA
 GLOBAL| DGEMM library                                                      BLAS
 GLOBAL| Minimum number of eigenvectors for ELPA usage                        16
 GLOBAL| Orthonormality check for eigenvectors                          DISABLED
 GLOBAL| Matrix multiplication library                                     COSMA
 GLOBAL| All-to-all communication in single precision                          F
 GLOBAL| FFTs using library dependent lengths                                  F
 GLOBAL| Grid backend                                                       AUTO
 GLOBAL| Global print level                                               MEDIUM
 GLOBAL| MPI I/O enabled                                                       T
 GLOBAL| Total number of message passing processes                           192
 GLOBAL| Number of threads for this process                                    4
 GLOBAL| This output is from process                                           0
 GLOBAL| OpenMP stack size per thread (OMP_STACKSIZE)                    default
 GLOBAL| CPU model name                          AMD EPYC 7763 64-Core Processor
 GLOBAL| CPUID                                                              1002

 MEMORY| system memory details [Kb]
 MEMORY|                        rank 0           min           max       average
 MEMORY| MemTotal            263899264     263899260     263899264     263899262
 MEMORY| MemFree             241475700     239939128     246491920     242843199
 MEMORY| Buffers                193860         43136        200212        149116
 MEMORY| Cached                8416816       5765392       9387448       7381017
 MEMORY| Slab                  2358748       1157656       2636236       2157486
 MEMORY| SReclaimable           490984        243932        565864        418974
 MEMORY| MemLikelyFree       250577360     250044464     253001140     250792307


 *** Fundamental physical constants (SI units) ***

 *** Literature: B. J. Mohr and B. N. Taylor,
 ***             CODATA recommended values of the fundamental physical
 ***             constants: 2006, Web Version 5.1
 ***             http://physics.nist.gov/constants

 Speed of light in vacuum [m/s]                             2.99792458000000E+08
 Magnetic constant or permeability of vacuum [N/A**2]       1.25663706143592E-06
 Electric constant or permittivity of vacuum [F/m]          8.85418781762039E-12
 Planck constant (h) [J*s]                                  6.62606896000000E-34
 Planck constant (h-bar) [J*s]                              1.05457162825177E-34
 Elementary charge [C]                                      1.60217648700000E-19
 Electron mass [kg]                                         9.10938215000000E-31
 Electron g factor [ ]                                     -2.00231930436220E+00
 Proton mass [kg]                                           1.67262163700000E-27
 Fine-structure constant                                    7.29735253760000E-03
 Rydberg constant [1/m]                                     1.09737315685270E+07
 Avogadro constant [1/mol]                                  6.02214179000000E+23
 Boltzmann constant [J/K]                                   1.38065040000000E-23
 Atomic mass unit [kg]                                      1.66053878200000E-27
 Bohr radius [m]                                            5.29177208590000E-11

 *** Conversion factors ***

 [u] -> [a.u.]                                              1.82288848426455E+03
 [Angstrom] -> [Bohr] = [a.u.]                              1.88972613288564E+00
 [a.u.] = [Bohr] -> [Angstrom]                              5.29177208590000E-01
 [a.u.] -> [s]                                              2.41888432650478E-17
 [a.u.] -> [fs]                                             2.41888432650478E-02
 [a.u.] -> [J]                                              4.35974393937059E-18
 [a.u.] -> [N]                                              8.23872205491840E-08
 [a.u.] -> [K]                                              3.15774647902944E+05
 [a.u.] -> [kJ/mol]                                         2.62549961709828E+03
 [a.u.] -> [kcal/mol]                                       6.27509468713739E+02
 [a.u.] -> [Pa]                                             2.94210107994716E+13
 [a.u.] -> [bar]                                            2.94210107994716E+08
 [a.u.] -> [atm]                                            2.90362800883016E+08
 [a.u.] -> [eV]                                             2.72113838565563E+01
 [a.u.] -> [Hz]                                             6.57968392072181E+15
 [a.u.] -> [1/cm] (wave numbers)                            2.19474631370540E+05
 [a.u./Bohr**2] -> [1/cm]                                   5.14048714338585E+03
 

 CELL_TOP| Volume [angstrom^3]:                                     27000.000000
 CELL_TOP| Vector a [angstrom    30.000     0.000     0.000   |a| =    30.000000
 CELL_TOP| Vector b [angstrom     0.000    30.000     0.000   |b| =    30.000000
 CELL_TOP| Vector c [angstrom     0.000     0.000    30.000   |c| =    30.000000
 CELL_TOP| Angle (b,c), alpha [degree]:                                90.000000
 CELL_TOP| Angle (a,c), beta  [degree]:                                90.000000
 CELL_TOP| Angle (a,b), gamma [degree]:                                90.000000
 CELL_TOP| Numerically orthorhombic:                                         YES
 CELL_TOP| Periodicity                                                      NONE

 GENERATE|  Preliminary Number of Bonds generated:                             0
 GENERATE|  Achieved consistency in connectivity generation.

 CELL| Volume [angstrom^3]:                                         27000.000000
 CELL| Vector a [angstrom]:      30.000     0.000     0.000   |a| =    30.000000
 CELL| Vector b [angstrom]:       0.000    30.000     0.000   |b| =    30.000000
 CELL| Vector c [angstrom]:       0.000     0.000    30.000   |c| =    30.000000
 CELL| Angle (b,c), alpha [degree]:                                    90.000000
 CELL| Angle (a,c), beta  [degree]:                                    90.000000
 CELL| Angle (a,b), gamma [degree]:                                    90.000000
 CELL| Numerically orthorhombic:                                             YES
 CELL| Periodicity                                                          NONE

 CELL_REF| Volume [angstrom^3]:                                     27000.000000
 CELL_REF| Vector a [angstrom    30.000     0.000     0.000   |a| =    30.000000
 CELL_REF| Vector b [angstrom     0.000    30.000     0.000   |b| =    30.000000
 CELL_REF| Vector c [angstrom     0.000     0.000    30.000   |c| =    30.000000
 CELL_REF| Angle (b,c), alpha [degree]:                                90.000000
 CELL_REF| Angle (a,c), beta  [degree]:                                90.000000
 CELL_REF| Angle (a,b), gamma [degree]:                                90.000000
 CELL_REF| Numerically orthorhombic:                                         YES
 CELL_REF| Periodicity                                                      NONE

 *******************************************************************************
 *******************************************************************************
 **                                                                           **
 **     #####                         ##              ##                      **
 **    ##   ##            ##          ##              ##                      **
 **   ##     ##                       ##            ######                    **
 **   ##     ##  ##   ##  ##   #####  ##  ##   ####   ##    #####    #####    **
 **   ##     ##  ##   ##  ##  ##      ## ##   ##      ##   ##   ##  ##   ##   **
 **   ##  ## ##  ##   ##  ##  ##      ####     ###    ##   ######   ######    **
 **    ##  ###   ##   ##  ##  ##      ## ##      ##   ##   ##       ##        **
 **     #######   #####   ##   #####  ##  ##  ####    ##    #####   ##        **
 **           ##                                                    ##        **
 **                                                                           **
 **                                                ... make the atoms dance   **
 **                                                                           **
 **            Copyright (C) by CP2K developers group (2000-2025)             **
 **                      J. Chem. Phys. 152, 194103 (2020)                    **
 **                                                                           **
 *******************************************************************************

 DFT| Spin restricted Kohn-Sham (RKS) calculation                            RKS
 DFT| Multiplicity                                                             1
 DFT| Number of spin states                                                    1
 DFT| Charge                                                                   0
 DFT| Self-interaction correction (SIC)                                       NO
 DFT| Cutoffs: density                                              1.000000E-10
 DFT|          gradient                                             1.000000E-10
 DFT|          tau                                                  1.000000E-10
 DFT|          cutoff_smoothing_range                               0.000000E+00
 DFT| XC density smoothing                                                  NONE
 DFT| XC derivatives                                                          PW

 FUNCTIONAL| PBE:
 FUNCTIONAL| J.P.Perdew, K.Burke, M.Ernzerhof, Phys. Rev. Letter, vol. 77, n 18,
 FUNCTIONAL|  pp. 3865-3868, (1996)sx=0.750sc=1.000{spin unpolarized}           


 QS| Method:                                                                GAPW
 QS| Density plane wave grid type                        NON-SPHERICAL FULLSPACE
 QS| Number of grid levels:                                                    4
 QS| Density cutoff [a.u.]:                                                250.0
 QS| Multi grid cutoff [a.u.]: 1) grid level                               250.0
 QS|                           2) grid level                                83.3
 QS|                           3) grid level                                27.8
 QS|                           4) grid level                                 9.3
 QS| Grid level progression factor:                                          3.0
 QS| Relative density cutoff [a.u.]:                                        50.0
 QS| Interaction thresholds: eps_pgf_orb:                                1.0E-12
 QS|                         eps_filter_matrix:                          0.0E+00
 QS|                         eps_core_charge:                            1.0E-14
 QS|                         eps_rho_gspace:                             1.0E-12
 QS|                         eps_rho_rspace:                             1.0E-12
 QS|                         eps_gvg_rspace:                             1.0E-06
 QS|                         eps_ppl:                                    1.0E-02
 QS|                         eps_ppnl:                                   1.0E-08
 QS| GAPW|      One center basis from orbital basis primitives
 QS| GAPW|                   eps_fit:                                    1.0E-04
 QS| GAPW|                   eps_iso:                                    1.0E-12
 QS| GAPW|                   eps_svd:                                    1.0E-08
 QS| GAPW|                   eps_cpc:                                    1.0E-12
 QS| GAPW|   atom-r-grid: quadrature:                                     GC_LOG
 QS| GAPW|      atom-s-grid:  max l :                                          4
 QS| GAPW|      max_l_rho0 :                                                   2


 ATOMIC KIND INFORMATION

  1. Atomic kind: C                                     Number of atoms:       4

     Orbital Basis Set                                         aug-SZV-MOLOPT-ae

       Number of orbital shell sets:                                           2
       Number of orbital shells:                                               6
       Number of primitive Cartesian functions:                               13
       Number of Cartesian basis functions:                                   15
       Number of spherical basis functions:                                   14
       Norm type:                                                              2

       Normalised Cartesian orbitals:

                        Set   Shell   Orbital            Exponent    Coefficient

                          1       1    2s                0.070000       0.000000
                                                         0.143687       0.040037
                                                         0.313471       0.177689
                                                         0.721783       0.139661
                                                         1.876046      -0.038599
                                                         6.036200      -0.128975
                                                        30.497239      -0.122578

                          1       2    3s                0.070000      -0.142268
                                                         0.143687       0.288819
                                                         0.313471       0.010360
                                                         0.721783       0.175994
                                                         1.876046       0.000000
                                                         6.036200       0.000000
                                                        30.497239       0.000000

                          1       3    3px               0.070000       0.000000
                                                         0.143687       0.012825
                                                         0.313471       0.142381
                                                         0.721783       0.396426
                                                         1.876046       0.544234
                                                         6.036200       0.508157
                                                        30.497239       0.384077
                          1       3    3py               0.070000       0.000000
                                                         0.143687       0.012825
                                                         0.313471       0.142381
                                                         0.721783       0.396426
                                                         1.876046       0.544234
                                                         6.036200       0.508157
                                                        30.497239       0.384077
                          1       3    3pz               0.070000       0.000000
                                                         0.143687       0.012825
                                                         0.313471       0.142381
                                                         0.721783       0.396426
                                                         1.876046       0.544234
                                                         6.036200       0.508157
                                                        30.497239       0.384077

                          1       4    4px               0.070000       0.076505
                                                         0.143687      -0.086104
                                                         0.313471       0.010230
                                                         0.721783       0.129894
                                                         1.876046       0.000000
                                                         6.036200       0.000000
                                                        30.497239       0.000000
                          1       4    4py               0.070000       0.076505
                                                         0.143687      -0.086104
                                                         0.313471       0.010230
                                                         0.721783       0.129894
                                                         1.876046       0.000000
                                                         6.036200       0.000000
                                                        30.497239       0.000000
                          1       4    4pz               0.070000       0.076505
                                                         0.143687      -0.086104
                                                         0.313471       0.010230
                                                         0.721783       0.129894
                                                         1.876046       0.000000
                                                         6.036200       0.000000
                                                        30.497239       0.000000

                          1       5    4dx2              0.070000       0.004316
                                                         0.143687       0.012639
                                                         0.313471       0.125057
                                                         0.721783       0.080411
                                                         1.876046       0.000000
                                                         6.036200       0.000000
                                                        30.497239       0.000000
                          1       5    4dxy              0.070000       0.007476
                                                         0.143687       0.021892
                                                         0.313471       0.216606
                                                         0.721783       0.139276
                                                         1.876046       0.000000
                                                         6.036200       0.000000
                                                        30.497239       0.000000
                          1       5    4dxz              0.070000       0.007476
                                                         0.143687       0.021892
                                                         0.313471       0.216606
                                                         0.721783       0.139276
                                                         1.876046       0.000000
                                                         6.036200       0.000000
                                                        30.497239       0.000000
                          1       5    4dy2              0.070000       0.004316
                                                         0.143687       0.012639
                                                         0.313471       0.125057
                                                         0.721783       0.080411
                                                         1.876046       0.000000
                                                         6.036200       0.000000
                                                        30.497239       0.000000
                          1       5    4dyz              0.070000       0.007476
                                                         0.143687       0.021892
                                                         0.313471       0.216606
                                                         0.721783       0.139276
                                                         1.876046       0.000000
                                                         6.036200       0.000000
                                                        30.497239       0.000000
                          1       5    4dz2              0.070000       0.004316
                                                         0.143687       0.012639
                                                         0.313471       0.125057
                                                         0.721783       0.080411
                                                         1.876046       0.000000
                                                         6.036200       0.000000
                                                        30.497239       0.000000

                          2       1    1s              742.737049       0.929185
                                                       136.180025       1.402437
                                                        38.098264       1.841991
                                                        13.087782       1.817278
                                                         5.082369       1.004768
                                                         2.093200       0.161650

     RI Auxiliary Basis Set             RI_aug-SZV-MOLOPT-ae_N_RI_048_s_p_d_f_g_

       Number of orbital shell sets:                                          14
       Number of orbital shells:                                              14
       Number of primitive Cartesian functions:                               14
       Number of Cartesian basis functions:                                   62
       Number of spherical basis functions:                                   48
       Norm type:                                                              2

       Normalised Cartesian orbitals:

                        Set   Shell   Orbital            Exponent    Coefficient

                          1       1    1s                0.182132       0.198701

                          2       1    7px               0.213594       0.206979
                          2       1    7py               0.213594       0.206979
                          2       1    7pz               0.213594       0.206979

                          3       1   10dx2              0.381125       0.304282
                          3       1   10dxy              0.381125       0.527033
                          3       1   10dxz              0.381125       0.527033
                          3       1   10dy2              0.381125       0.304282
                          3       1   10dyz              0.381125       0.527033
                          3       1   10dz2              0.381125       0.304282

                          4       1    2s                0.433905       0.381027

                          5       1   12fx3              0.524446       0.344573
                          5       1   12fx2y             0.524446       0.770488
                          5       1   12fx2z             0.524446       0.770488
                          5       1   12fxy2             0.524446       0.770488
                          5       1   12fxyz             0.524446       1.334524
                          5       1   12fxz2             0.524446       0.770488
                          5       1   12fy3              0.524446       0.344573
                          5       1   12fy2z             0.524446       0.770488
                          5       1   12fyz2             0.524446       0.770488
                          5       1   12fz3              0.524446       0.344573

                          6       1    8px               0.915857       1.277099
                          6       1    8py               0.915857       1.277099
                          6       1    8pz               0.915857       1.277099

                          7       1   14gx4              1.217666       1.912659
                          7       1   14gx3y             1.217666       5.060419
                          7       1   14gx3z             1.217666       5.060419
                          7       1   14gx2y2            1.217666       6.532973
                          7       1   14gx2yz            1.217666      11.315442
                          7       1   14gx2z2            1.217666       6.532973
                          7       1   14gxy3             1.217666       5.060419
                          7       1   14gxy2z            1.217666      11.315442
                          7       1   14gxyz2            1.217666      11.315442
                          7       1   14gxz3             1.217666       5.060419
                          7       1   14gy4              1.217666       1.912659
                          7       1   14gy3z             1.217666       5.060419
                          7       1   14gy2z2            1.217666       6.532973
                          7       1   14gyz3             1.217666       5.060419
                          7       1   14gz4              1.217666       1.912659

                          8       1   11dx2              1.581488       3.670921
                          8       1   11dxy              1.581488       6.358221
                          8       1   11dxz              1.581488       6.358221
                          8       1   11dy2              1.581488       3.670921
                          8       1   11dyz              1.581488       6.358221
                          8       1   11dz2              1.581488       3.670921

                          9       1    3s                1.620693       1.023730

                         10       1   13fx3              2.677157      13.496481
                         10       1   13fx2y             2.677157      30.179050
                         10       1   13fx2z             2.677157      30.179050
                         10       1   13fxy2             2.677157      30.179050
                         10       1   13fxyz             2.677157      52.271648
                         10       1   13fxz2             2.677157      30.179050
                         10       1   13fy3              2.677157      13.496481
                         10       1   13fy2z             2.677157      30.179050
                         10       1   13fyz2             2.677157      30.179050
                         10       1   13fz3              2.677157      13.496481

                         11       1    4s                5.999661       2.732154

                         12       1    9px               9.284861      23.102519
                         12       1    9py               9.284861      23.102519
                         12       1    9pz               9.284861      23.102519

                         13       1    5s               22.224963       7.295262

                         14       1    6s               82.329769      19.479498

       Atomic covalent radius [Angstrom]:                                  0.770

       Atomic van der Waals radius [Angstrom]:                             1.700

     The atoms of this atomic kind are PAW atoms (GAPW):
       Hard Gaussian function radius:                                      1.512
       Rho0 radius:                                                        1.512
       Maximum GTO radius used for PAW projector construction:            24.566

     GAPW Soft Basis Set                                  aug-SZV-MOLOPT-ae_soft

       Number of orbital shell sets:                                           2
       Number of orbital shells:                                               6
       Number of primitive Cartesian functions:                                6
       Number of Cartesian basis functions:                                   15
       Number of spherical basis functions:                                   14
       Norm type:                                                              2

       Normalised Cartesian orbitals:

                        Set   Shell   Orbital            Exponent    Coefficient

                          1       1    2s                0.070000       0.000000
                                                         0.143687       0.040037
                                                         0.313471       0.177689
                                                         0.721783       0.139661
                                                         1.876046      -0.038599

                          1       2    3s                0.070000      -0.142268
                                                         0.143687       0.288819
                                                         0.313471       0.010360
                                                         0.721783       0.175994
                                                         1.876046       0.000000

                          1       3    3px               0.070000       0.000000
                                                         0.143687       0.012825
                                                         0.313471       0.142381
                                                         0.721783       0.396426
                                                         1.876046       0.544234
                          1       3    3py               0.070000       0.000000
                                                         0.143687       0.012825
                                                         0.313471       0.142381
                                                         0.721783       0.396426
                                                         1.876046       0.544234
                          1       3    3pz               0.070000       0.000000
                                                         0.143687       0.012825
                                                         0.313471       0.142381
                                                         0.721783       0.396426
                                                         1.876046       0.544234

                          1       4    4px               0.070000       0.076505
                                                         0.143687      -0.086104
                                                         0.313471       0.010230
                                                         0.721783       0.129894
                                                         1.876046       0.000000
                          1       4    4py               0.070000       0.076505
                                                         0.143687      -0.086104
                                                         0.313471       0.010230
                                                         0.721783       0.129894
                                                         1.876046       0.000000
                          1       4    4pz               0.070000       0.076505
                                                         0.143687      -0.086104
                                                         0.313471       0.010230
                                                         0.721783       0.129894
                                                         1.876046       0.000000

                          1       5    4dx2              0.070000       0.004316
                                                         0.143687       0.012639
                                                         0.313471       0.125057
                                                         0.721783       0.080411
                                                         1.876046       0.000000
                          1       5    4dxy              0.070000       0.007476
                                                         0.143687       0.021892
                                                         0.313471       0.216606
                                                         0.721783       0.139276
                                                         1.876046       0.000000
                          1       5    4dxz              0.070000       0.007476
                                                         0.143687       0.021892
                                                         0.313471       0.216606
                                                         0.721783       0.139276
                                                         1.876046       0.000000
                          1       5    4dy2              0.070000       0.004316
                                                         0.143687       0.012639
                                                         0.313471       0.125057
                                                         0.721783       0.080411
                                                         1.876046       0.000000
                          1       5    4dyz              0.070000       0.007476
                                                         0.143687       0.021892
                                                         0.313471       0.216606
                                                         0.721783       0.139276
                                                         1.876046       0.000000
                          1       5    4dz2              0.070000       0.004316
                                                         0.143687       0.012639
                                                         0.313471       0.125057
                                                         0.721783       0.080411
                                                         1.876046       0.000000

                          2       1    1s                2.093200       0.161650

     AE Potential information for                                            ALL

       Description:                                       All-electron potential
                                          Krack, Parrinello, PCCP 2, 2105 (2000)

       Gaussian exponent of the core charge distribution:               4.109048
       Electronic configuration (s p d ...):                           4   2   0

  2. Atomic kind: H                                     Number of atoms:       6

     Orbital Basis Set                                         aug-SZV-MOLOPT-ae

       Number of orbital shell sets:                                           1
       Number of orbital shells:                                               4
       Number of primitive Cartesian functions:                                7
       Number of Cartesian basis functions:                                    6
       Number of spherical basis functions:                                    6
       Norm type:                                                              2

       Normalised Cartesian orbitals:

                        Set   Shell   Orbital            Exponent    Coefficient

                          1       1    1s                0.065428       0.000000
                                                         0.100112       0.016532
                                                         0.243077       0.102760
                                                         0.625955       0.185857
                                                         1.822143       0.188385
                                                         6.513144       0.143430
                                                        35.523221       0.095030

                          1       2    2s                0.065428       0.083549
                                                         0.100112       0.009605
                                                         0.243077       0.002524
                                                         0.625955       0.013457
                                                         1.822143       0.000000
                                                         6.513144       0.000000
                                                        35.523221       0.000000

                          1       3    3s                0.065428       0.037407
                                                         0.100112      -0.169070
                                                         0.243077      -0.018899
                                                         0.625955       0.012806
                                                         1.822143       0.000000
                                                         6.513144       0.000000
                                                        35.523221       0.000000

                          1       4    2px               0.065428       0.059908
                                                         0.100112      -0.023770
                                                         0.243077       0.000032
                                                         0.625955       0.017779
                                                         1.822143       0.000000
                                                         6.513144       0.000000
                                                        35.523221       0.000000
                          1       4    2py               0.065428       0.059908
                                                         0.100112      -0.023770
                                                         0.243077       0.000032
                                                         0.625955       0.017779
                                                         1.822143       0.000000
                                                         6.513144       0.000000
                                                        35.523221       0.000000
                          1       4    2pz               0.065428       0.059908
                                                         0.100112      -0.023770
                                                         0.243077       0.000032
                                                         0.625955       0.017779
                                                         1.822143       0.000000
                                                         6.513144       0.000000
                                                        35.523221       0.000000

     RI Auxiliary Basis Set             RI_aug-SZV-MOLOPT-ae_N_RI_007_s_p_d_f_g_

       Number of orbital shell sets:                                           5
       Number of orbital shells:                                               5
       Number of primitive Cartesian functions:                                5
       Number of Cartesian basis functions:                                    7
       Number of spherical basis functions:                                    7
       Norm type:                                                              2

       Normalised Cartesian orbitals:

                        Set   Shell   Orbital            Exponent    Coefficient

                          1       1    1s                0.148777       0.170731

                          2       1    5px               0.367452       0.407794
                          2       1    5py               0.367452       0.407794
                          2       1    5pz               0.367452       0.407794

                          3       1    2s                0.510503       0.430437

                          4       1    3s                1.106366       0.768837

                          5       1    4s                5.955292       2.716986

       Atomic covalent radius [Angstrom]:                                  0.320

       Atomic van der Waals radius [Angstrom]:                             1.090

     The atoms of this atomic kind are PAW atoms (GAPW):
       Hard Gaussian function radius:                                      1.200
       Rho0 radius:                                                        1.200
       Maximum GTO radius used for PAW projector construction:            24.566

     GAPW Soft Basis Set                                  aug-SZV-MOLOPT-ae_soft

       Number of orbital shell sets:                                           1
       Number of orbital shells:                                               4
       Number of primitive Cartesian functions:                                6
       Number of Cartesian basis functions:                                    6
       Number of spherical basis functions:                                    6
       Norm type:                                                              2

       Normalised Cartesian orbitals:

                        Set   Shell   Orbital            Exponent    Coefficient

                          1       1    1s                0.065428       0.000000
                                                         0.100112       0.016532
                                                         0.243077       0.102760
                                                         0.625955       0.185857
                                                         1.822143       0.188385
                                                         6.513144       0.000000

                          1       2    2s                0.065428       0.083549
                                                         0.100112       0.009605
                                                         0.243077       0.002524
                                                         0.625955       0.013457
                                                         1.822143       0.000000
                                                         6.513144       0.000000

                          1       3    3s                0.065428       0.037407
                                                         0.100112      -0.169070
                                                         0.243077      -0.018899
                                                         0.625955       0.012806
                                                         1.822143       0.000000
                                                         6.513144       0.000000

                          1       4    2px               0.065428       0.059908
                                                         0.100112      -0.023770
                                                         0.243077       0.000032
                                                         0.625955       0.017779
                                                         1.822143       0.000000
                                                         6.513144       0.000000
                          1       4    2py               0.065428       0.059908
                                                         0.100112      -0.023770
                                                         0.243077       0.000032
                                                         0.625955       0.017779
                                                         1.822143       0.000000
                                                         6.513144       0.000000
                          1       4    2pz               0.065428       0.059908
                                                         0.100112      -0.023770
                                                         0.243077       0.000032
                                                         0.625955       0.017779
                                                         1.822143       0.000000
                                                         6.513144       0.000000

     AE Potential information for                                            ALL

       Description:                                       All-electron potential
                                          Krack, Parrinello, PCCP 2, 2105 (2000)

       Gaussian exponent of the core charge distribution:              12.500000
       Electronic configuration (s p d ...):                           1   0   0

  3. Atomic kind: N                                     Number of atoms:       2

     Orbital Basis Set                                         aug-SZV-MOLOPT-ae

       Number of orbital shell sets:                                           2
       Number of orbital shells:                                               6
       Number of primitive Cartesian functions:                               13
       Number of Cartesian basis functions:                                   15
       Number of spherical basis functions:                                   14
       Norm type:                                                              2

       Normalised Cartesian orbitals:

                        Set   Shell   Orbital            Exponent    Coefficient

                          1       1    1s                0.090000       0.000000
                                                         0.184684       0.048330
                                                         0.402911       0.214496
                                                         0.927724       0.168591
                                                         2.411326      -0.046594
                                                         7.758467      -0.155691
                                                        39.198808      -0.147969

                          1       2    2s                0.090000      -0.118940
                                                         0.184684       0.080942
                                                         0.402911      -0.164238
                                                         0.927724      -0.024406
                                                         2.411326       0.000000
                                                         7.758467       0.000000
                                                        39.198808       0.000000

                          1       3    2px               0.090000       0.000000
                                                         0.184684       0.017552
                                                         0.402911       0.194858
                                                         0.927724       0.542535
                                                         2.411326       0.744820
                                                         7.758467       0.695446
                                                        39.198808       0.525635
                          1       3    2py               0.090000       0.000000
                                                         0.184684       0.017552
                                                         0.402911       0.194858
                                                         0.927724       0.542535
                                                         2.411326       0.744820
                                                         7.758467       0.695446
                                                        39.198808       0.525635
                          1       3    2pz               0.090000       0.000000
                                                         0.184684       0.017552
                                                         0.402911       0.194858
                                                         0.927724       0.542535
                                                         2.411326       0.744820
                                                         7.758467       0.695446
                                                        39.198808       0.525635

                          1       4    3px               0.090000      -0.032237
                                                         0.184684      -0.080882
                                                         0.402911       0.112185
                                                         0.927724       1.067728
                                                         2.411326       0.000000
                                                         7.758467       0.000000
                                                        39.198808       0.000000
                          1       4    3py               0.090000      -0.032237
                                                         0.184684      -0.080882
                                                         0.402911       0.112185
                                                         0.927724       1.067728
                                                         2.411326       0.000000
                                                         7.758467       0.000000
                                                        39.198808       0.000000
                          1       4    3pz               0.090000      -0.032237
                                                         0.184684      -0.080882
                                                         0.402911       0.112185
                                                         0.927724       1.067728
                                                         2.411326       0.000000
                                                         7.758467       0.000000
                                                        39.198808       0.000000

                          1       5    3dx2              0.090000      -0.010633
                                                         0.184684      -0.050923
                                                         0.402911       0.103346
                                                         0.927724      -0.777682
                                                         2.411326       0.000000
                                                         7.758467       0.000000
                                                        39.198808       0.000000
                          1       5    3dxy              0.090000      -0.018417
                                                         0.184684      -0.088201
                                                         0.402911       0.179000
                                                         0.927724      -1.346985
                                                         2.411326       0.000000
                                                         7.758467       0.000000
                                                        39.198808       0.000000
                          1       5    3dxz              0.090000      -0.018417
                                                         0.184684      -0.088201
                                                         0.402911       0.179000
                                                         0.927724      -1.346985
                                                         2.411326       0.000000
                                                         7.758467       0.000000
                                                        39.198808       0.000000
                          1       5    3dy2              0.090000      -0.010633
                                                         0.184684      -0.050923
                                                         0.402911       0.103346
                                                         0.927724      -0.777682
                                                         2.411326       0.000000
                                                         7.758467       0.000000
                                                        39.198808       0.000000
                          1       5    3dyz              0.090000      -0.018417
                                                         0.184684      -0.088201
                                                         0.402911       0.179000
                                                         0.927724      -1.346985
                                                         2.411326       0.000000
                                                         7.758467       0.000000
                                                        39.198808       0.000000
                          1       5    3dz2              0.090000      -0.010633
                                                         0.184684      -0.050923
                                                         0.402911       0.103346
                                                         0.927724      -0.777682
                                                         2.411326       0.000000
                                                         7.758467       0.000000
                                                        39.198808       0.000000

                          2       1    1s             1027.828458       1.185541
                                                       188.451223       1.789359
                                                        52.721861       2.350183
                                                        18.111382       2.318652
                                                         7.033180       1.281976
                                                         2.896652       0.206248

     RI Auxiliary Basis Set             RI_aug-SZV-MOLOPT-ae_N_RI_043_s_p_d_f_g_

       Number of orbital shell sets:                                          15
       Number of orbital shells:                                              15
       Number of primitive Cartesian functions:                               15
       Number of Cartesian basis functions:                                   49
       Number of spherical basis functions:                                   43
       Norm type:                                                              2

       Normalised Cartesian orbitals:

                        Set   Shell   Orbital            Exponent    Coefficient

                          1       1    1s                0.348881       0.323533

                          2       1   12dx2              0.415899       0.354517
                          2       1   12dxy              0.415899       0.614042
                          2       1   12dxz              0.415899       0.614042
                          2       1   12dy2              0.415899       0.354517
                          2       1   12dyz              0.415899       0.614042
                          2       1   12dz2              0.415899       0.354517

                          3       1    7px               0.565430       0.698898
                          3       1    7py               0.565430       0.698898
                          3       1    7pz               0.565430       0.698898

                          4       1    2s                0.604256       0.488456

                          5       1    8px               0.736384       0.972345
                          5       1    8py               0.736384       0.972345
                          5       1    8pz               0.736384       0.972345

                          6       1   15fx3              1.197807       2.209658
                          6       1   15fx2y             1.197807       4.940945
                          6       1   15fx2z             1.197807       4.940945
                          6       1   15fxy2             1.197807       4.940945
                          6       1   15fxyz             1.197807       8.557969
                          6       1   15fxz2             1.197807       4.940945
                          6       1   15fy3              1.197807       2.209658
                          6       1   15fy2z             1.197807       4.940945
                          6       1   15fyz2             1.197807       4.940945
                          6       1   15fz3              1.197807       2.209658

                          7       1   13dx2              1.339145       2.743833
                          7       1   13dxy              1.339145       4.752458
                          7       1   13dxz              1.339145       4.752458
                          7       1   13dy2              1.339145       2.743833
                          7       1   13dyz              1.339145       4.752458
                          7       1   13dz2              1.339145       2.743833

                          8       1    3s                2.115726       1.250273

                          9       1    9px               3.057998       5.764167
                          9       1    9py               3.057998       5.764167
                          9       1    9pz               3.057998       5.764167

                         10       1   14dx2              5.406341      31.549351
                         10       1   14dxy              5.406341      54.645078
                         10       1   14dxz              5.406341      54.645078
                         10       1   14dy2              5.406341      31.549351
                         10       1   14dyz              5.406341      54.645078
                         10       1   14dz2              5.406341      31.549351

                         11       1    4s                8.101925       3.422562

                         12       1   10px               9.242623      22.971223
                         12       1   10py               9.242623      22.971223
                         12       1   10pz               9.242623      22.971223

                         13       1   11px              24.533825      77.829934
                         13       1   11py              24.533825      77.829934
                         13       1   11pz              24.533825      77.829934

                         14       1    5s               30.207474       9.183239

                         15       1    6s              110.078037      24.220639

       Atomic covalent radius [Angstrom]:                                  0.750

       Atomic van der Waals radius [Angstrom]:                             1.550

     The atoms of this atomic kind are PAW atoms (GAPW):
       Hard Gaussian function radius:                                      1.512
       Rho0 radius:                                                        1.512
       Maximum GTO radius used for PAW projector construction:            24.566

     GAPW Soft Basis Set                                  aug-SZV-MOLOPT-ae_soft

       Number of orbital shell sets:                                           2
       Number of orbital shells:                                               6
       Number of primitive Cartesian functions:                                6
       Number of Cartesian basis functions:                                   15
       Number of spherical basis functions:                                   14
       Norm type:                                                              2

       Normalised Cartesian orbitals:

                        Set   Shell   Orbital            Exponent    Coefficient

                          1       1    1s                0.090000       0.000000
                                                         0.184684       0.048330
                                                         0.402911       0.214496
                                                         0.927724       0.168591
                                                         2.411326      -0.046594

                          1       2    2s                0.090000      -0.118940
                                                         0.184684       0.080942
                                                         0.402911      -0.164238
                                                         0.927724      -0.024406
                                                         2.411326       0.000000

                          1       3    2px               0.090000       0.000000
                                                         0.184684       0.017552
                                                         0.402911       0.194858
                                                         0.927724       0.542535
                                                         2.411326       0.744820
                          1       3    2py               0.090000       0.000000
                                                         0.184684       0.017552
                                                         0.402911       0.194858
                                                         0.927724       0.542535
                                                         2.411326       0.744820
                          1       3    2pz               0.090000       0.000000
                                                         0.184684       0.017552
                                                         0.402911       0.194858
                                                         0.927724       0.542535
                                                         2.411326       0.744820

                          1       4    3px               0.090000      -0.032237
                                                         0.184684      -0.080882
                                                         0.402911       0.112185
                                                         0.927724       1.067728
                                                         2.411326       0.000000
                          1       4    3py               0.090000      -0.032237
                                                         0.184684      -0.080882
                                                         0.402911       0.112185
                                                         0.927724       1.067728
                                                         2.411326       0.000000
                          1       4    3pz               0.090000      -0.032237
                                                         0.184684      -0.080882
                                                         0.402911       0.112185
                                                         0.927724       1.067728
                                                         2.411326       0.000000

                          1       5    3dx2              0.090000      -0.010633
                                                         0.184684      -0.050923
                                                         0.402911       0.103346
                                                         0.927724      -0.777682
                                                         2.411326       0.000000
                          1       5    3dxy              0.090000      -0.018417
                                                         0.184684      -0.088201
                                                         0.402911       0.179000
                                                         0.927724      -1.346985
                                                         2.411326       0.000000
                          1       5    3dxz              0.090000      -0.018417
                                                         0.184684      -0.088201
                                                         0.402911       0.179000
                                                         0.927724      -1.346985
                                                         2.411326       0.000000
                          1       5    3dy2              0.090000      -0.010633
                                                         0.184684      -0.050923
                                                         0.402911       0.103346
                                                         0.927724      -0.777682
                                                         2.411326       0.000000
                          1       5    3dyz              0.090000      -0.018417
                                                         0.184684      -0.088201
                                                         0.402911       0.179000
                                                         0.927724      -1.346985
                                                         2.411326       0.000000
                          1       5    3dz2              0.090000      -0.010633
                                                         0.184684      -0.050923
                                                         0.402911       0.103346
                                                         0.927724      -0.777682
                                                         2.411326       0.000000

                          2       1    1s                2.896652       0.206248

     AE Potential information for                                            ALL

       Description:                                       All-electron potential
                                          Krack, Parrinello, PCCP 2, 2105 (2000)

       Gaussian exponent of the core charge distribution:               5.979100
       Electronic configuration (s p d ...):                           4   3   0

  4. Atomic kind: O                                     Number of atoms:       1

     Orbital Basis Set                                         aug-SZV-MOLOPT-ae

       Number of orbital shell sets:                                           2
       Number of orbital shells:                                               5
       Number of primitive Cartesian functions:                               13
       Number of Cartesian basis functions:                                    9
       Number of spherical basis functions:                                    9
       Norm type:                                                              2

       Normalised Cartesian orbitals:

                        Set   Shell   Orbital            Exponent    Coefficient

                          1       1    1s                0.123000       0.000000
                                                         0.245881       0.059902
                                                         0.536420       0.265853
                                                         1.235135       0.208956
                                                         3.210345      -0.057750
                                                        10.329320      -0.192968
                                                        52.187762      -0.183398

                          1       2    2s                0.123000      -0.253465
                                                         0.245881       0.187097
                                                         0.536420       0.063592
                                                         1.235135       0.074938
                                                         3.210345       0.000000
                                                        10.329320       0.000000
                                                        52.187762       0.000000

                          1       3    2px               0.123000       0.000000
                                                         0.245881       0.025102
                                                         0.536420       0.278668
                                                         1.235135       0.775885
                                                         3.210345       1.065175
                                                        10.329320       0.994565
                                                        52.187762       0.751716
                          1       3    2py               0.123000       0.000000
                                                         0.245881       0.025102
                                                         0.536420       0.278668
                                                         1.235135       0.775885
                                                         3.210345       1.065175
                                                        10.329320       0.994565
                                                        52.187762       0.751716
                          1       3    2pz               0.123000       0.000000
                                                         0.245881       0.025102
                                                         0.536420       0.278668
                                                         1.235135       0.775885
                                                         3.210345       1.065175
                                                        10.329320       0.994565
                                                        52.187762       0.751716

                          1       4    3px               0.123000       0.048536
                                                         0.245881       0.257066
                                                         0.536420      -0.539300
                                                         1.235135      -0.153605
                                                         3.210345       0.000000
                                                        10.329320       0.000000
                                                        52.187762       0.000000
                          1       4    3py               0.123000       0.048536
                                                         0.245881       0.257066
                                                         0.536420      -0.539300
                                                         1.235135      -0.153605
                                                         3.210345       0.000000
                                                        10.329320       0.000000
                                                        52.187762       0.000000
                          1       4    3pz               0.123000       0.048536
                                                         0.245881       0.257066
                                                         0.536420      -0.539300
                                                         1.235135      -0.153605
                                                         3.210345       0.000000
                                                        10.329320       0.000000
                                                        52.187762       0.000000

                          2       1    1s             1355.584234       1.459053
                                                       248.544885       2.202176
                                                        69.533902       2.892385
                                                        23.886772       2.853580
                                                         9.275933       1.577736
                                                         3.820341       0.253831

     RI Auxiliary Basis Set             RI_aug-SZV-MOLOPT-ae_N_RI_039_s_p_d_f_g_

       Number of orbital shell sets:                                          13
       Number of orbital shells:                                              13
       Number of primitive Cartesian functions:                               13
       Number of Cartesian basis functions:                                   45
       Number of spherical basis functions:                                   39
       Norm type:                                                              2

       Normalised Cartesian orbitals:

                        Set   Shell   Orbital            Exponent    Coefficient

                          1       1    6px               0.339985       0.370054
                          1       1    6py               0.339985       0.370054
                          1       1    6pz               0.339985       0.370054

                          2       1    1s                0.360717       0.331730

                          3       1   10dx2              0.387676       0.313495
                          3       1   10dxy              0.387676       0.542989
                          3       1   10dxz              0.387676       0.542989
                          3       1   10dy2              0.387676       0.313495
                          3       1   10dyz              0.387676       0.542989
                          3       1   10dz2              0.387676       0.313495

                          4       1    2s                1.025597       0.726344

                          5       1   11dx2              1.429532       3.076087
                          5       1   11dxy              1.429532       5.327939
                          5       1   11dxz              1.429532       5.327939
                          5       1   11dy2              1.429532       3.076087
                          5       1   11dyz              1.429532       5.327939
                          5       1   11dz2              1.429532       3.076087

                          6       1    7px               1.889939       3.158637
                          6       1    7py               1.889939       3.158637
                          6       1    7pz               1.889939       3.158637

                          7       1   13fx3              2.090453       7.735623
                          7       1   13fx2y             2.090453      17.297380
                          7       1   13fx2z             2.090453      17.297380
                          7       1   13fxy2             2.090453      17.297380
                          7       1   13fxyz             2.090453      29.959941
                          7       1   13fxz2             2.090453      17.297380
                          7       1   13fy3              2.090453       7.735623
                          7       1   13fy2z             2.090453      17.297380
                          7       1   13fyz2             2.090453      17.297380
                          7       1   13fz3              2.090453       7.735623

                          8       1    3s                4.532550       2.213946

                          9       1   12dx2              4.657163      24.300880
                          9       1   12dxy              4.657163      42.090359
                          9       1   12dxz              4.657163      42.090359
                          9       1   12dy2              4.657163      24.300880
                          9       1   12dyz              4.657163      42.090359
                          9       1   12dz2              4.657163      24.300880

                         10       1    8px               7.383619      17.349090
                         10       1    8py               7.383619      17.349090
                         10       1    8pz               7.383619      17.349090

                         11       1    4s               28.138782       8.707411

                         12       1    9px              31.263869     105.376434
                         12       1    9py              31.263869     105.376434
                         12       1    9pz              31.263869     105.376434

                         13       1    5s              157.923413      31.750092

       Atomic covalent radius [Angstrom]:                                  0.730

       Atomic van der Waals radius [Angstrom]:                             1.520

     The atoms of this atomic kind are PAW atoms (GAPW):
       Hard Gaussian function radius:                                      1.512
       Rho0 radius:                                                        1.512
       Maximum GTO radius used for PAW projector construction:            24.566

     GAPW Soft Basis Set                                  aug-SZV-MOLOPT-ae_soft

       Number of orbital shell sets:                                           2
       Number of orbital shells:                                               5
[...]
 https://doi.org/10.1063/1.2335442

 M. Iannuzzi, T. Chassaing, T. Wallman, J. Hutter.
 CHIMIA 59, 499-503 (2005).
 Ground and excited state density functional calculations with the Gaussian and 
 augmented-plane-wave method.
 https://doi.org/10.2533/000942905777676164

 M. Frigo, S. G. Johnson.
 Proc. IEEE 93, 216-231 (2005).
 The design and implementation of FFTW3.
 https://doi.org/10.1109/JPROC.2004.840301

 R. L. Martin.
 J. Chem. Phys. 118, 4775-4777 (2003).
 Natural transition orbitals.
 https://doi.org/10.1063/1.1558471

 M. Krack, M. Parrinello.
 Phys. Chem. Chem. Phys. 2, 2105-2112 (2000).
 All-electron ab-initio molecular dynamics.
 https://doi.org/10.1039/b001167n

 G. Lippert, J. Hutter, M. Parrinello.
 Theor. Chem. Acc. 103, 124-140 (1999).
 The Gaussian and augmented-plane-wave density functional method for ab initio 
 molecular dynamics simulations.
 https://doi.org/10.1007/s002140050523

 J. P. Perdew, K. Burke, M. Ernzerhof.
 Phys. Rev. Lett. 77, 3865-3868 (1996).
 Generalized gradient approximation made simple.
 https://doi.org/10.1103/PhysRevLett.77.3865


 -------------------------------------------------------------------------------
 -                                                                             -
 -                                T I M I N G                                  -
 -                                                                             -
 -------------------------------------------------------------------------------
 SUBROUTINE                       CALLS  ASD         SELF TIME        TOTAL TIME
                                MAXIMUM       AVERAGE  MAXIMUM  AVERAGE  MAXIMUM
 CP2K                                 1  1.0    0.016    0.038  365.225  365.227
 qs_energies                          1  2.0    0.000    0.000  364.926  364.927
 qs_energies_properties               1  3.0    0.000    0.000  247.661  247.662
 tddfpt                               1  4.0    0.000    0.000  247.661  247.662
 tddfpt_energies                      1  5.0    0.000    0.000  247.641  247.642
 tddfpt_davidson_solver               1  6.0    0.001    0.002  246.423  246.425
 tddfpt_compute_Aop_evects            9  7.0    0.000    0.000  244.676  244.677
 fhxc_kernel                          9  8.0    0.007    0.009  216.004  216.005
 fft_wrap_pw1pw2                   5294 11.0    0.105    0.130  140.277  149.549
 fft_wrap_pw1pw2_250               3728 12.1    2.994    3.876  132.379  146.404
 fft3d_ps                          5294 13.0   18.789   26.002  128.414  136.999
 scf_env_do_scf                       1  3.0    0.000    0.000  116.596  116.603
 scf_env_do_scf_inner_loop           80  4.0    0.002    0.004  116.596  116.603
 mp_alltoall_z22v                  5294 15.0  103.580  111.557  103.580  111.557
 qs_ks_update_qs_env                 80  5.0    0.001    0.001   84.682   84.695
 rebuild_ks_matrix                   80  6.0    0.000    0.000   84.674   84.686
 qs_ks_build_kohn_sham_matrix        80  7.0    0.012    0.014   84.674   84.686
 qs_rho_update_rho_low              262  7.8    0.003    0.003   75.558   75.566
 pw_poisson_solve                   260  9.4    1.179    1.553   71.939   74.253
 calculate_rho_elec                 262  8.8    0.344    0.487   73.688   73.693
 tddfpt_apply_coulomb               180  9.0    0.003    0.004   69.547   71.931
 yz_to_x                           2086 14.5    1.845    2.097   53.663   59.584
 x_to_yz                           2164 13.7    2.411    4.046   54.015   57.168
 xc_pw_derive                      1563 11.0    0.013    0.014   54.256   55.761
 tddfpt_apply_xc_analytic           180  9.0    0.289    0.418   45.673   47.049
 density_rs2pw                      262  9.8    0.011    0.013   43.982   46.762
 integrate_v_rspace                 260  9.0    0.007    0.011   43.075   44.751
 potential_pw2rs                    260 10.0    0.027    0.035   42.356   42.510
 ps_wavelet_solve                   260 10.4   15.692   21.668   37.339   40.268
 transfer_pw2rs                    1301 10.9    0.023    0.030   38.911   40.066
 xc_pw_divergence                   260 10.7    0.006    0.006   35.581   36.589
 mp_waitany                       85662 12.8   29.449   35.261   29.449   35.261
 integrate_four_center              440  9.8   13.378   31.484   35.041   35.138
 mp_sync                           2338 11.5   18.437   31.222   18.437   31.222
 grid_collocate_task_list           262  9.8   26.632   28.562   26.632   28.562
 tddfpt_apply_hfx                     9  8.0    0.002    0.002   28.296   28.296
 xc_calc_2nd_deriv_analytical       900 10.1    1.290    1.574   26.526   27.204
 mp_sum_d                          4604  7.8   11.074   26.636   11.074   26.636
 tddft_hfx_matrix                   360  9.0    0.004    0.009   26.262   26.322
 transfer_rs2pw                    1310 10.7    0.039    0.055   24.687   25.813
 prepare_gapw_den                   261  8.7    0.004    0.004   22.174   24.570
 transfer_pw2rs_250                 521 11.7    3.876    4.338   22.023   24.193
 mp_alltoall_d54                    260 11.4   10.977   23.407   10.977   23.407
 qs_vxc_create                       80  8.0    0.001    0.001   22.773   22.773
 xc_vxc_pw_create                    80  9.0    0.167    0.229   22.772   22.772
 put_rho0_on_grid                   261  9.7    0.368    0.568   20.088   22.484
 integrate_vhg0_rspace              260  9.4    0.203    0.244   16.205   16.963
 transfer_rs2pw_250                 524 11.7    4.368    4.802   14.828   16.190
 fft_wrap_pw1pw2_90                 522 11.9    0.107    0.174    6.390   15.445
 mp_alltoall_d45                    261 11.4   11.021   13.523   11.021   13.523
 sum_up_and_integrate                80  8.0    0.001    0.002   12.520   13.004
 mp_isend_dm3                     10446 12.8    6.465   12.846    6.465   12.846
 mp_waitall_1                    500076 13.2    9.444   12.341    9.444   12.341
 mp_alltoall_d11v                 16060 11.6    8.421   12.141    8.421   12.141
 transfer_pw2rs_90                  260 12.0    0.679    0.827    9.008   12.102
 xc_rho_set_and_dset_create          81 10.0    0.204    0.273   10.707   11.966
 transfer_pw2rs_30                  260 12.0    1.130    1.311    6.815    9.305
 hfx_ks_matrix                       80  8.0    0.001    0.002    8.787    8.825
 cp2k_distribution_to_z_slices      260 10.4    1.086    1.294    7.558    8.286
 gspace_mixing                       79  5.0    0.103    0.147    7.413    7.414
 Vh_1c_gg_integrals                 260  9.4    0.031    0.298    2.567    7.059
 pw_integral_ab_c1d_c1d_gs          260 10.4    0.705    0.841    2.746    6.223
 mp_sum_dm                        10305  9.9    4.978    6.041    4.978    6.041
 transfer_rs2pw_90                  262 11.8    0.959    1.189    5.072    5.618
 rs_grid_zero                      1303 11.9    3.869    4.363    3.869    4.363
 pw_derive                         2343 11.8    3.945    4.249    3.945    4.249
 transfer_rs2pw_30                  262 11.8    1.477    1.717    3.652    4.057
 mp_max_i                           761  5.0    1.600    3.871    1.600    3.871
 pw_copy                           3545 11.0    3.393    3.808    3.393    3.808
 broyden_mixing                      79  6.0    3.244    3.366    3.374    3.429
 pw_gather_p                       2610 13.3    2.862    3.409    2.862    3.409
 mp_sendrecv_dv                  100084 12.8    2.835    3.284    2.835    3.284
 pw_scatter_p                      2684 12.8    2.857    3.193    2.857    3.193
 cp_dbcsr_sm_fm_multiply           1126  8.6    0.013    0.016    2.793    2.867
 update_ks_atom                     260  8.7    0.047    0.081    2.038    2.621
 pw_copy_to_array                  2610 13.3    1.827    2.583    1.827    2.583
 mp_bcast_dm                       6760  9.7    1.991    2.571    1.991    2.571
 pw_poisson_set                     261 10.4    0.005    0.006    2.389    2.508
 calculate_xc_2nd_deriv_atom        180  9.0    0.068    0.472    0.163    2.357
 gaVxcgb_GC                         520  9.7    0.076    2.276    0.076    2.276
 grid_integrate_task_list           260 10.0    0.173    2.156    0.173    2.156
 rs_gather_matrices                 260 10.0    0.004    0.024    0.537    2.144
 parallel_gemm_fm                  1673  8.2    0.001    0.002    1.882    1.965
 parallel_gemm_fm_cosma            1673  9.2    1.881    1.964    1.881    1.964
 calculate_rho_atom_coeff           262  8.8    0.081    0.201    1.868    1.874
 dbcsr_multiply_generic            1566 10.3    0.037    0.045    1.825    1.859
 calculate_rho_atom                1044  9.7    0.894    1.851    0.894    1.851
 dbcsr_complete_redistribute       3777 10.5    0.086    0.128    1.646    1.827
 xc_functional_eval                1121 10.9    0.001    0.004    0.986    1.759
 pbe_lda_eval                      1121 11.9    0.985    1.757    0.985    1.757
 pw_axpy                           2788 10.8    1.482    1.746    1.482    1.746
 pw_zero                           2826 10.6    1.429    1.636    1.429    1.636
 mp_sum_dv                        21025  8.9    1.450    1.534    1.450    1.534
 pw_copy_from_array                2684 12.8    1.093    1.407    1.093    1.407
 cp_dbcsr_sm_fm_multiply_core      1126  9.6    0.002    0.002    1.243    1.270
 fft_wrap_pw1pw2_30                 522 11.9    0.014    0.018    0.987    1.260
 transfer_rs2pw_10                  262 11.8    0.437    0.575    1.097    1.236
 copy_fm_to_dbcsr                  2547  9.5    0.006    0.007    1.011    1.195
 qs_scf_new_mos                      80  5.0    0.001    0.001    1.155    1.170
 mp_alltoall_z11v                  1044 14.9    0.906    1.152    0.906    1.152
 mp_alltoall_i22                   5006 11.4    1.007    1.139    1.007    1.139
 transfer_pw2rs_10                  260 12.0    0.303    0.357    1.043    1.131
 powell_optimize                 751129 11.0    1.084    1.119    1.084    1.119
 calc_screening_functions             1 10.0    0.467    0.478    1.068    1.097
 integrate_four_center_main         440 10.8    0.048    0.139    0.807    1.030
 mp_irecv_dm3                     10446 12.8    0.219    1.021    0.219    1.021
 integrate_four_center_bin        36969 11.8    0.759    0.972    0.759    0.972
 copy_dbcsr_to_fm                  1228  9.3    0.009    0.010    0.913    0.965
 calculate_vxc_atom                  80  8.0    0.038    0.110    0.890    0.891
 calc_pair_dist_radii                 1 10.0    0.323    0.396    0.806    0.873
 eigensolver_symm                    80  6.0    0.006    0.007    0.833    0.841
 tddfpt_orthonormalize_psi1_psi      10  6.9    0.010    0.011    0.833    0.834
 mp_rank_compare                   5294 14.0    0.755    0.820    0.755    0.820
 cp_dbcsr_plus_fm_fm_t              260  8.4    0.002    0.002    0.794    0.819
 pw_poisson_rebuild                 260 10.4    0.000    0.000    0.736    0.762
 ps_wavelet_create                    1 10.0    0.000    0.000    0.735    0.761
 RS_z_slice_distribution              1 11.0    0.193    0.218    0.735    0.761
 multiply_cannon                   1566 11.3    0.102    0.110    0.707    0.746
 prepare_dr1dr                      900 11.1    0.554    0.734    0.554    0.734
 cp_fm_diag_elpa                    131  7.2    0.000    0.000    0.644    0.653
 offload_free_buffer                268 10.2    0.066    0.648    0.066    0.648
 xz_to_yz                           524 13.8    0.028    0.037    0.526    0.628
 cp_fm_diag_elpa_base               131  8.2    0.610    0.618    0.623    0.626
 yz_to_xz                           520 14.0    0.036    0.053    0.445    0.604
 mp_sum_l                          6010 10.6    0.549    0.592    0.549    0.592
 make_m2s                          3132 11.3    0.027    0.030    0.537    0.563
 tddfpt_compute_residual_vects        8  7.0    0.000    0.000    0.540    0.540
 tddfpt_print_nto_analysis            1  6.0    0.002    0.002    0.516    0.516
 fft_wrap_pw1pw2_10                 522 11.9    0.004    0.005    0.416    0.504
 multiply_cannon_loop              1566 12.3    0.097    0.100    0.461    0.503
 make_images                       3132 12.3    0.080    0.086    0.468    0.495
 cp_fm_trace_a1b1t1_aa            16500  8.0    0.028    0.046    0.454    0.461
 tddfpt_construct_ground_state_       1  6.0    0.000    0.000    0.422    0.434
 mp_isendrecv_dv                 267400 12.3    0.184    0.415    0.184    0.415
 mp_isend_dv                     148818 13.5    0.171    0.379    0.171    0.379
 tddfpt_apply_energy_diff             9  8.0    0.000    0.000    0.376    0.377
 init_scf_run                         1  3.0    0.000    0.000    0.376    0.376
 scf_env_initial_rho_setup            1  4.0    0.000    0.000    0.368    0.368
 integrate_four_center_getP         440 10.8    0.066    0.074    0.334    0.354
 make_images_sizes                 3132 13.3    0.002    0.002    0.278    0.301
 mp_alltoall_i44                   3132 14.3    0.276    0.299    0.276    0.299
 integrate_four_center_dist_KS      440 10.8    0.064    0.080    0.286    0.293
 scale_and_distribute               520 11.4    0.191    0.274    0.191    0.274
 tddfpt_orthogonalize_psi1_psi0      10  6.9    0.000    0.000    0.244    0.265
 xc_2nd_deriv_of_r                  720 10.0    0.001    0.036    0.010    0.259
 mp_cart_sub                       2460 11.3    0.251    0.255    0.251    0.255
 cp_fm_geeig                         20  7.0    0.001    0.001    0.250    0.251
 calculate_rho0_atom               1044  9.7    0.234    0.246    0.234    0.246
 mp_alltoall_i11v                 12560 11.4    0.096    0.236    0.096    0.236
 calculate_dm_sparse                 80  6.0    0.000    0.000    0.219    0.227
 qs_energies_init_hamiltonians        1  3.0    0.000    0.000    0.216    0.216
 dbcsr_desymmetrize_deep           1229 10.3    0.017    0.020    0.188    0.213
 build_core_hamiltonian_matrix        1  4.0    0.000    0.000    0.212    0.212
 overlap_condnum                      1  5.0    0.000    0.000    0.210    0.211
 mp_cart_create                    2273 10.6    0.177    0.193    0.179    0.196
 arnoldi_conjugate_gradient           5  6.0    0.004    0.005    0.193    0.193
 cube_transpose_2                   524 13.8    0.009    0.012    0.101    0.191
 multiply_cannon_metrocomm3       37584 13.3    0.052    0.055    0.125    0.177
 rs_grid_create                     266 10.3    0.001    0.002    0.021    0.171
 offload_create_buffer              268 11.3    0.019    0.169    0.019    0.169
 create_kernel_env                    1  6.0    0.000    0.000    0.151    0.169
 xc_prep_2nd_deriv                    1  7.0    0.000    0.000    0.150    0.169
 pw_scale                           680  9.5    0.137    0.166    0.137    0.166
 mp_irecv_dv                     148538 13.5    0.086    0.151    0.086    0.151
 dbcsr_finalize                    9598 11.4    0.019    0.027    0.116    0.147
 tddfpt_is_nonorthogonal_psi1_p       8  7.0    0.000    0.000    0.147    0.147
 cube_transpose_1                   520 14.0    0.008    0.021    0.076    0.134
 integrate_four_center_load         440 10.8    0.000    0.001    0.094    0.133
 hfx_load_balance                     1 11.0    0.000    0.000    0.094    0.132
 write_mo_set_to_restart             80  5.0    0.001    0.049    0.036    0.126
 rs_scatter_matrices                262  9.8    0.002    0.005    0.008    0.124
 hfx_load_balance_range               1 12.0    0.000    0.000    0.083    0.121
 create_qs_kind_set                   1  2.0    0.000    0.000    0.119    0.120
 read_qs_kind                         4  3.0    0.042    0.057    0.119    0.120
 dbcsr_sym_matrix_vector_mult      1305  7.0    0.009    0.010    0.102    0.119
 multiply_cannon_metrocomm4       36018 13.3    0.054    0.061    0.093    0.118
 qs_init_subsys                       1  2.0    0.001    0.001    0.114    0.114
 mp_allgather_i34                  1566 12.3    0.096    0.113    0.096    0.113
 qs_env_setup                         1  3.0    0.000    0.000    0.110    0.110
 qs_env_rebuild_pw_env                2  3.5    0.000    0.000    0.109    0.109
 pw_env_rebuild                       1  5.0    0.000    0.000    0.109    0.109
 dbcsr_merge_all                   7684 12.4    0.053    0.088    0.076    0.108
 multiply_cannon_metrocomm2       32886 13.3    0.048    0.057    0.079    0.106
 cp_fm_symm                          80  7.0    0.095    0.098    0.095    0.098
 pw_grid_setup                        4  6.0    0.000    0.000    0.090    0.090
 pw_grid_setup_internal               4  7.0    0.001    0.002    0.090    0.090
 dbcsr_create_new                 34110 11.6    0.060    0.065    0.082    0.089
 cp_fm_write_unformatted             24  7.0    0.053    0.086    0.053    0.087
 vxc_of_r_new                       320  9.0    0.000    0.007    0.003    0.080
 parser_read_line                 16987  4.0    0.003    0.003    0.078    0.079
 write_mo_set_low                     4  6.0    0.000    0.000    0.035    0.078
 scf_post_calculation_gpw             1  3.0    0.000    0.000    0.077    0.078
 write_available_results              1  4.0    0.000    0.000    0.077    0.077
 write_mo_free_results                1  5.0    0.002    0.003    0.076    0.077
 parser_read_line_low                29  5.0    0.002    0.018    0.075    0.076
 mp_bcast_b_src                     211  8.0    0.068    0.075    0.068    0.075
 broadcast_input_information         29  6.0    0.009    0.009    0.073    0.074
 make_images_data                  3132 13.3    0.019    0.025    0.046    0.070
 cp_fm_triangular_invert             20  8.0    0.065    0.066    0.065    0.066
 external_control                    80  5.0    0.000    0.063    0.065    0.066
 multiply_cannon_metrocomm1       37584 13.3    0.020    0.021    0.043    0.062
 tddfpt_compute_ritz_vects            9  7.0    0.004    0.005    0.061    0.062
 dbcsr_rep_row_to_rep_col_vec      1305  8.0    0.003    0.003    0.028    0.059
 cp_fm_cholesky_decompose            20  8.0    0.055    0.057    0.055    0.057
 multiply_cannon_multrec          37584 13.3    0.019    0.051    0.023    0.054
 mp_bcast_i_src                     116  7.0    0.043    0.054    0.043    0.054
 pw_grid_sort                         4  8.0    0.035    0.036    0.048    0.053
 copy_fm_to_dbcsr_bc               2547 10.5    0.014    0.016    0.045    0.051
 hybrid_alltoall_any               4361 13.5    0.019    0.023    0.030    0.050
 dbcsr_add_d                       2020  7.1    0.001    0.001    0.009    0.046
 dbcsr_col_vec_to_rep_row          1305  8.0    0.004    0.005    0.029    0.045
 dbcsr_add_anytype                 2020  8.1    0.001    0.006    0.008    0.045
 dbcsr_iterator_start             42005 11.0    0.028    0.033    0.036    0.043
 mp_cart_rank                    200096 10.9    0.033    0.041    0.033    0.041
 dbcsr_destroy                    31424 11.0    0.020    0.025    0.031    0.040
 dbcsr_special_finalize            6264 13.3    0.009    0.010    0.030    0.037
 -------------------------------------------------------------------------------

 The number of warnings for this run is : 1
 
 -------------------------------------------------------------------------------
  **** **** ******  **  PROGRAM ENDED AT                 2025-03-27 06:08:49.263
 ***** ** ***  *** **   PROGRAM RAN ON                     n2cn0221.ab2021.local
 **    ****   ******    PROGRAM RAN BY                                  metdyn02
 ***** **    ** ** **   PROGRAM PROCESS ID                               1910800
  **** **  *******  **  PROGRAM STOPPED IN /scratch/hpc-prf-metdyn/metdyn02_Remi
                                           /10_MOL/05_MOL/aUKBqsEOTmq69kFe5R_nOg
                                           /5k_set_final_qzvp/REHKOE/SZV/TDDFT/1
                                           e-4
