 DBCSR| CPU Multiplication driver                                           BLAS (U)
 DBCSR| Multrec recursion limit                                              512 (U)
 DBCSR| Multiplication stack size                                           1000 (D)
 DBCSR| Maximum elements for images                                    UNLIMITED (U)
 DBCSR| Multiplicative factor virtual images                                   1 (U)
 DBCSR| Use multiplication densification                                       T (D)
 DBCSR| Multiplication size stacks                                             3 (U)
 DBCSR| Use memory pool for CPU allocation                                     F (U)
 DBCSR| Number of 3D layers                                               SINGLE (U)
 DBCSR| Use MPI memory allocation                                              F (U)
 DBCSR| Use RMA algorithm                                                      F (U)
 DBCSR| Use Communication thread                                               T (U)
 DBCSR| Communication thread load                                             75 (D)
 DBCSR| MPI: My process id                                                     0
 DBCSR| MPI: Number of processes                                              96
 DBCSR| OMP: Current number of threads                                         4
 DBCSR| OMP: Max number of threads                                             4
 DBCSR| Split modifier for TAS multiplication algorithm                  1.0E+00 (U)


  **** **** ******  **  PROGRAM STARTED AT               2025-04-24 01:10:44.183
 ***** ** ***  *** **   PROGRAM STARTED ON                          i04r07c06s10
 **    ****   ******    PROGRAM STARTED BY                               di38fab
 ***** **    ** ** **   PROGRAM PROCESS ID                                999734
  **** **  *******  **  PROGRAM STARTED IN /hppfs/scratch/04/di38fab/07_MOL_non_
                                           aug/05_MOL_non_aug/05_MOL/W4-11+ALK/s
                                           2o/cc-pVQZ/TDDFT

 CP2K| version string:                 CP2K version 2025.1 (Development Version)
 CP2K| source code revision number:                             unknown revision
 CP2K| cp2kflags: omp libint fftw3 libxc parallel scalapack max_contr=4         
 CP2K| is freely available from                            https://www.cp2k.org/
 CP2K| Program compiled at                         Thu Apr 10 16:20:23 CEST 2025
 CP2K| Program compiled on                                               login01
 CP2K| Program compiled for                                        Supermuc-foss
 CP2K| Data directory path                  /hppfs/work/pn36zo/di38fab/cp2k/data
 CP2K| Input file name                                                    GW.inp

 GLOBAL| Force Environment number                                              1
 GLOBAL| Basis set file name            /hppfs/scratch/04/di38fab/04_TMD/BASIS_A
 GLOBAL| Potential file name            /hppfs/work/pn36zo/di38fab/cp2k/data/ALL
 GLOBAL| MM Potential file name                                     MM_POTENTIAL
 GLOBAL| Coordinate file name                                      __STD_INPUT__
 GLOBAL| Method name                                                        CP2K
 GLOBAL| Project name                                                       MoS2
 GLOBAL| Run type                                                         ENERGY
 GLOBAL| FFT library                                                       FFTW3
 GLOBAL| Diagonalization library                                       ScaLAPACK
 GLOBAL| DGEMM library                                                      BLAS
 GLOBAL| Orthonormality check for eigenvectors                          DISABLED
 GLOBAL| Matrix multiplication library                                 ScaLAPACK
 GLOBAL| All-to-all communication in single precision                          F
 GLOBAL| FFTs using library dependent lengths                                  F
 GLOBAL| Grid backend                                                       AUTO
 GLOBAL| Global print level                                               MEDIUM
 GLOBAL| MPI I/O enabled                                                       T
 GLOBAL| Total number of message passing processes                            96
 GLOBAL| Number of threads for this process                                    4
 GLOBAL| This output is from process                                           0
 GLOBAL| OpenMP stack size per thread (OMP_STACKSIZE)                    default
 GLOBAL| CPU model name             Intel(R) Xeon(R) Platinum 8174 CPU @ 3.10GHz

 MEMORY| system memory details [Kb]
 MEMORY|                        rank 0           min           max       average
 MEMORY| MemTotal             98436708      98436660      98436868      98436700
 MEMORY| MemFree              83479236      83479236      84201816      83904265
 MEMORY| Buffers                     0             0             0             0
 MEMORY| Cached                2407980       2391732       2407980       2401158
 MEMORY| Slab                  1278396       1207668       1278396       1238425
 MEMORY| SReclaimable           283216        268636        283216        277115
 MEMORY| MemLikelyFree        86170432      86170432      86881616      86582538


 *** Fundamental physical constants (SI units) ***

 *** Literature: B. J. Mohr and B. N. Taylor,
 ***             CODATA recommended values of the fundamental physical
 ***             constants: 2006, Web Version 5.1
 ***             http://physics.nist.gov/constants

 Speed of light in vacuum [m/s]                             2.99792458000000E+08
 Magnetic constant or permeability of vacuum [N/A**2]       1.25663706143592E-06
 Electric constant or permittivity of vacuum [F/m]          8.85418781762039E-12
 Planck constant (h) [J*s]                                  6.62606896000000E-34
 Planck constant (h-bar) [J*s]                              1.05457162825177E-34
 Elementary charge [C]                                      1.60217648700000E-19
 Electron mass [kg]                                         9.10938215000000E-31
 Electron g factor [ ]                                     -2.00231930436220E+00
 Proton mass [kg]                                           1.67262163700000E-27
 Fine-structure constant                                    7.29735253760000E-03
 Rydberg constant [1/m]                                     1.09737315685270E+07
 Avogadro constant [1/mol]                                  6.02214179000000E+23
 Boltzmann constant [J/K]                                   1.38065040000000E-23
 Atomic mass unit [kg]                                      1.66053878200000E-27
 Bohr radius [m]                                            5.29177208590000E-11

 *** Conversion factors ***

 [u] -> [a.u.]                                              1.82288848426455E+03
 [Angstrom] -> [Bohr] = [a.u.]                              1.88972613288564E+00
 [a.u.] = [Bohr] -> [Angstrom]                              5.29177208590000E-01
 [a.u.] -> [s]                                              2.41888432650478E-17
 [a.u.] -> [fs]                                             2.41888432650478E-02
 [a.u.] -> [J]                                              4.35974393937059E-18
 [a.u.] -> [N]                                              8.23872205491840E-08
 [a.u.] -> [K]                                              3.15774647902944E+05
 [a.u.] -> [kJ/mol]                                         2.62549961709828E+03
 [a.u.] -> [kcal/mol]                                       6.27509468713739E+02
 [a.u.] -> [Pa]                                             2.94210107994716E+13
 [a.u.] -> [bar]                                            2.94210107994716E+08
 [a.u.] -> [atm]                                            2.90362800883016E+08
 [a.u.] -> [eV]                                             2.72113838565563E+01
 [a.u.] -> [Hz]                                             6.57968392072181E+15
 [a.u.] -> [1/cm] (wave numbers)                            2.19474631370540E+05
 [a.u./Bohr**2] -> [1/cm]                                   5.14048714338585E+03
 

 CELL_TOP| Volume [angstrom^3]:                                     27000.000000
 CELL_TOP| Vector a [angstrom    30.000     0.000     0.000   |a| =    30.000000
 CELL_TOP| Vector b [angstrom     0.000    30.000     0.000   |b| =    30.000000
 CELL_TOP| Vector c [angstrom     0.000     0.000    30.000   |c| =    30.000000
 CELL_TOP| Angle (b,c), alpha [degree]:                                90.000000
 CELL_TOP| Angle (a,c), beta  [degree]:                                90.000000
 CELL_TOP| Angle (a,b), gamma [degree]:                                90.000000
 CELL_TOP| Numerically orthorhombic:                                         YES
 CELL_TOP| Periodicity                                                      NONE

 GENERATE|  Preliminary Number of Bonds generated:                             0
 GENERATE|  Achieved consistency in connectivity generation.

 CELL| Volume [angstrom^3]:                                         27000.000000
 CELL| Vector a [angstrom]:      30.000     0.000     0.000   |a| =    30.000000
 CELL| Vector b [angstrom]:       0.000    30.000     0.000   |b| =    30.000000
 CELL| Vector c [angstrom]:       0.000     0.000    30.000   |c| =    30.000000
 CELL| Angle (b,c), alpha [degree]:                                    90.000000
 CELL| Angle (a,c), beta  [degree]:                                    90.000000
 CELL| Angle (a,b), gamma [degree]:                                    90.000000
 CELL| Numerically orthorhombic:                                             YES
 CELL| Periodicity                                                          NONE

 CELL_REF| Volume [angstrom^3]:                                     27000.000000
 CELL_REF| Vector a [angstrom    30.000     0.000     0.000   |a| =    30.000000
 CELL_REF| Vector b [angstrom     0.000    30.000     0.000   |b| =    30.000000
 CELL_REF| Vector c [angstrom     0.000     0.000    30.000   |c| =    30.000000
 CELL_REF| Angle (b,c), alpha [degree]:                                90.000000
 CELL_REF| Angle (a,c), beta  [degree]:                                90.000000
 CELL_REF| Angle (a,b), gamma [degree]:                                90.000000
 CELL_REF| Numerically orthorhombic:                                         YES
 CELL_REF| Periodicity                                                      NONE

 *******************************************************************************
 *******************************************************************************
 **                                                                           **
 **     #####                         ##              ##                      **
 **    ##   ##            ##          ##              ##                      **
 **   ##     ##                       ##            ######                    **
 **   ##     ##  ##   ##  ##   #####  ##  ##   ####   ##    #####    #####    **
 **   ##     ##  ##   ##  ##  ##      ## ##   ##      ##   ##   ##  ##   ##   **
 **   ##  ## ##  ##   ##  ##  ##      ####     ###    ##   ######   ######    **
 **    ##  ###   ##   ##  ##  ##      ## ##      ##   ##   ##       ##        **
 **     #######   #####   ##   #####  ##  ##  ####    ##    #####   ##        **
 **           ##                                                    ##        **
 **                                                                           **
 **                                                ... make the atoms dance   **
 **                                                                           **
 **            Copyright (C) by CP2K developers group (2000-2025)             **
 **                      J. Chem. Phys. 152, 194103 (2020)                    **
 **                                                                           **
 *******************************************************************************

 DFT| Spin restricted Kohn-Sham (RKS) calculation                            RKS
 DFT| Multiplicity                                                             1
 DFT| Number of spin states                                                    1
 DFT| Charge                                                                   0
 DFT| Self-interaction correction (SIC)                                       NO
 DFT| Cutoffs: density                                              1.000000E-10
 DFT|          gradient                                             1.000000E-10
 DFT|          tau                                                  1.000000E-10
 DFT|          cutoff_smoothing_range                               0.000000E+00
 DFT| XC density smoothing                                                  NONE
 DFT| XC derivatives                                                          PW

 FUNCTIONAL| PBE:
 FUNCTIONAL| J.P.Perdew, K.Burke, M.Ernzerhof, Phys. Rev. Letter, vol. 77, n 18,
 FUNCTIONAL|  pp. 3865-3868, (1996)sx=0.750sc=1.000{spin unpolarized}           


 QS| Method:                                                                GAPW
 QS| Density plane wave grid type                        NON-SPHERICAL FULLSPACE
 QS| Number of grid levels:                                                    4
 QS| Density cutoff [a.u.]:                                                250.0
 QS| Multi grid cutoff [a.u.]: 1) grid level                               250.0
 QS|                           2) grid level                                83.3
 QS|                           3) grid level                                27.8
 QS|                           4) grid level                                 9.3
 QS| Grid level progression factor:                                          3.0
 QS| Relative density cutoff [a.u.]:                                        50.0
 QS| Interaction thresholds: eps_pgf_orb:                                1.0E-12
 QS|                         eps_filter_matrix:                          0.0E+00
 QS|                         eps_core_charge:                            1.0E-14
 QS|                         eps_rho_gspace:                             1.0E-12
 QS|                         eps_rho_rspace:                             1.0E-12
 QS|                         eps_gvg_rspace:                             1.0E-06
 QS|                         eps_ppl:                                    1.0E-02
 QS|                         eps_ppnl:                                   1.0E-08
 QS| GAPW|      One center basis from orbital basis primitives
 QS| GAPW|                   eps_fit:                                    1.0E-04
 QS| GAPW|                   eps_iso:                                    1.0E-12
 QS| GAPW|                   eps_svd:                                    1.0E-08
 QS| GAPW|                   eps_cpc:                                    1.0E-12
 QS| GAPW|   atom-r-grid: quadrature:                                     GC_LOG
 QS| GAPW|      atom-s-grid:  max l :                                          8
 QS| GAPW|      max_l_rho0 :                                                   2


 ATOMIC KIND INFORMATION

  1. Atomic kind: S                                     Number of atoms:       2

     Orbital Basis Set                                                   cc-pVQZ

       Number of orbital shell sets:                                           5
       Number of orbital shells:                                              17
       Number of primitive Cartesian functions:                               33
       Number of Cartesian basis functions:                                   74
       Number of spherical basis functions:                                   59
       Norm type:                                                              2

       Normalised Cartesian orbitals:

                        Set   Shell   Orbital            Exponent    Coefficient

                          1       1    1px            1546.000000       6.096361
                                                       366.400000       8.627460
                                                       118.400000      11.042915
                                                        44.530000      12.167369
                                                        18.380000      10.704304
                                                         7.965000       6.710904
                                                         3.541000       2.621971
                                                         1.591000       0.435360
                                                         0.620500       0.011900
                                                         0.242000       0.000016
                                                         0.090140       0.000029
                          1       1    1py            1546.000000       6.096361
                                                       366.400000       8.627460
                                                       118.400000      11.042915
                                                        44.530000      12.167369
                                                        18.380000      10.704304
                                                         7.965000       6.710904
                                                         3.541000       2.621971
                                                         1.591000       0.435360
                                                         0.620500       0.011900
                                                         0.242000       0.000016
                                                         0.090140       0.000029
                          1       1    1pz            1546.000000       6.096361
                                                       366.400000       8.627460
                                                       118.400000      11.042915
                                                        44.530000      12.167369
                                                        18.380000      10.704304
                                                         7.965000       6.710904
                                                         3.541000       2.621971
                                                         1.591000       0.435360
                                                         0.620500       0.011900
                                                         0.242000       0.000016
                                                         0.090140       0.000029

                          1       2    2px            1546.000000       0.000000
                                                       366.400000       0.000000
                                                       118.400000       0.000000
                                                        44.530000       0.000000
                                                        18.380000       0.000000
                                                         7.965000       0.000000
                                                         3.541000       0.000000
                                                         1.591000       0.000000
                                                         0.620500       0.784996
                                                         0.242000       0.000000
                                                         0.090140       0.000000
                          1       2    2py            1546.000000       0.000000
                                                       366.400000       0.000000
                                                       118.400000       0.000000
                                                        44.530000       0.000000
                                                        18.380000       0.000000
                                                         7.965000       0.000000
                                                         3.541000       0.000000
                                                         1.591000       0.000000
                                                         0.620500       0.784996
                                                         0.242000       0.000000
                                                         0.090140       0.000000
                          1       2    2pz            1546.000000       0.000000
                                                       366.400000       0.000000
                                                       118.400000       0.000000
                                                        44.530000       0.000000
                                                        18.380000       0.000000
                                                         7.965000       0.000000
                                                         3.541000       0.000000
                                                         1.591000       0.000000
                                                         0.620500       0.784996
                                                         0.242000       0.000000
                                                         0.090140       0.000000

                          1       3    3px            1546.000000      -1.562979
                                                       366.400000      -2.190350
                                                       118.400000      -2.858551
                                                        44.530000      -3.158675
                                                        18.380000      -2.907508
                                                         7.965000      -1.831658
                                                         3.541000      -0.818282
                                                         1.591000       0.023514
                                                         0.620500       0.281689
                                                         0.242000       0.127217
                                                         0.090140       0.017521
                          1       3    3py            1546.000000      -1.562979
                                                       366.400000      -2.190350
                                                       118.400000      -2.858551
                                                        44.530000      -3.158675
                                                        18.380000      -2.907508
                                                         7.965000      -1.831658
                                                         3.541000      -0.818282
                                                         1.591000       0.023514
                                                         0.620500       0.281689
                                                         0.242000       0.127217
                                                         0.090140       0.017521
                          1       3    3pz            1546.000000      -1.562979
                                                       366.400000      -2.190350
                                                       118.400000      -2.858551
                                                        44.530000      -3.158675
                                                        18.380000      -2.907508
                                                         7.965000      -1.831658
                                                         3.541000      -0.818282
                                                         1.591000       0.023514
                                                         0.620500       0.281689
                                                         0.242000       0.127217
                                                         0.090140       0.017521

                          1       4    4px            1546.000000       0.000000
                                                       366.400000       0.000000
                                                       118.400000       0.000000
                                                        44.530000       0.000000
                                                        18.380000       0.000000
                                                         7.965000       0.000000
                                                         3.541000       0.000000
                                                         1.591000       0.000000
                                                         0.620500       0.000000
                                                         0.242000       0.241941
                                                         0.090140       0.000000
                          1       4    4py            1546.000000       0.000000
                                                       366.400000       0.000000
                                                       118.400000       0.000000
                                                        44.530000       0.000000
                                                        18.380000       0.000000
                                                         7.965000       0.000000
                                                         3.541000       0.000000
                                                         1.591000       0.000000
                                                         0.620500       0.000000
                                                         0.242000       0.241941
                                                         0.090140       0.000000
                          1       4    4pz            1546.000000       0.000000
                                                       366.400000       0.000000
                                                       118.400000       0.000000
                                                        44.530000       0.000000
                                                        18.380000       0.000000
                                                         7.965000       0.000000
                                                         3.541000       0.000000
                                                         1.591000       0.000000
                                                         0.620500       0.000000
                                                         0.242000       0.241941
                                                         0.090140       0.000000

                          1       5    5px            1546.000000       0.000000
                                                       366.400000       0.000000
                                                       118.400000       0.000000
                                                        44.530000       0.000000
                                                        18.380000       0.000000
                                                         7.965000       0.000000
                                                         3.541000       0.000000
                                                         1.591000       0.000000
                                                         0.620500       0.000000
                                                         0.242000       0.000000
                                                         0.090140       0.070402
                          1       5    5py            1546.000000       0.000000
                                                       366.400000       0.000000
                                                       118.400000       0.000000
                                                        44.530000       0.000000
                                                        18.380000       0.000000
                                                         7.965000       0.000000
                                                         3.541000       0.000000
                                                         1.591000       0.000000
                                                         0.620500       0.000000
                                                         0.242000       0.000000
                                                         0.090140       0.070402
                          1       5    5pz            1546.000000       0.000000
                                                       366.400000       0.000000
                                                       118.400000       0.000000
                                                        44.530000       0.000000
                                                        18.380000       0.000000
                                                         7.965000       0.000000
                                                         3.541000       0.000000
                                                         1.591000       0.000000
                                                         0.620500       0.000000
                                                         0.242000       0.000000
                                                         0.090140       0.070402

                          2       1    1s           727800.000000       0.419157
                                                    109000.000000       0.784464
                                                     24800.000000       1.358160
                                                      7014.000000       2.220672
                                                      2278.000000       3.453924
                                                       814.700000       5.054600
                                                       313.400000       6.662782
                                                       127.700000       7.267566
                                                        54.480000       5.499624
                                                        23.850000       2.041180
                                                         9.428000       0.167699
                                                         4.290000      -0.008048
                                                         1.909000       0.002524
                                                         0.627000      -0.000420
                                                         0.287300       0.000125
                                                         0.117200      -0.000018

                          2       2    2s           727800.000000      -0.115821
                                                    109000.000000      -0.216607
                                                     24800.000000      -0.375828
                                                      7014.000000      -0.615074
                                                      2278.000000      -0.966305
                                                       814.700000      -1.439541
                                                       313.400000      -2.001386
                                                       127.700000      -2.432752
                                                        54.480000      -2.388139
                                                        23.850000      -1.302634
                                                         9.428000       0.490160
                                                         4.290000       1.200040
                                                         1.909000       0.499763
                                                         0.627000       0.019555
                                                         0.287300      -0.002042
                                                         0.117200       0.000275

                          2       3    3s           727800.000000       0.000000
                                                    109000.000000       0.000000
                                                     24800.000000       0.000000
                                                      7014.000000       0.000000
                                                      2278.000000       0.000000
                                                       814.700000       0.000000
                                                       313.400000       0.000000
                                                       127.700000       0.000000
                                                        54.480000       0.000000
                                                        23.850000       0.000000
                                                         9.428000       0.000000
                                                         4.290000       0.000000
                                                         1.909000       0.000000
                                                         0.627000       0.502182
                                                         0.287300       0.000000
                                                         0.117200       0.000000

                          2       4    4s           727800.000000       0.000000
                                                    109000.000000       0.000000
                                                     24800.000000       0.000000
                                                      7014.000000       0.000000
                                                      2278.000000       0.000000
                                                       814.700000       0.000000
                                                       313.400000       0.000000
                                                       127.700000       0.000000
                                                        54.480000       0.000000
                                                        23.850000       0.000000
                                                         9.428000       0.000000
                                                         4.290000       0.000000
                                                         1.909000       0.000000
                                                         0.627000       0.000000
                                                         0.287300       0.279680
                                                         0.117200       0.000000

                          2       5    5s           727800.000000       0.033637
                                                    109000.000000       0.062827
                                                     24800.000000       0.109222
                                                      7014.000000       0.178353
                                                      2278.000000       0.281267
                                                       814.700000       0.418208
                                                       313.400000       0.586813
                                                       127.700000       0.716502
                                                        54.480000       0.727127
                                                        23.850000       0.407687
                                                         9.428000      -0.163171
                                                         4.290000      -0.532933
                                                         1.909000      -0.385618
                                                         0.627000       0.132474
                                                         0.287300       0.186505
                                                         0.117200       0.041179

                          2       6    6s           727800.000000       0.000000
                                                    109000.000000       0.000000
                                                     24800.000000       0.000000
                                                      7014.000000       0.000000
                                                      2278.000000       0.000000
                                                       814.700000       0.000000
                                                       313.400000       0.000000
                                                       127.700000       0.000000
                                                        54.480000       0.000000
                                                        23.850000       0.000000
                                                         9.428000       0.000000
                                                         4.290000       0.000000
                                                         1.909000       0.000000
                                                         0.627000       0.000000
                                                         0.287300       0.000000
                                                         0.117200       0.142760

                          3       1    1dx2              1.250000       2.432215
                                                         0.504000       0.000000
                                                         0.203000       0.000000
                          3       1    1dxy              1.250000       4.212720
                                                         0.504000       0.000000
                                                         0.203000       0.000000
                          3       1    1dxz              1.250000       4.212720
                                                         0.504000       0.000000
                                                         0.203000       0.000000
                          3       1    1dy2              1.250000       2.432215
                                                         0.504000       0.000000
                                                         0.203000       0.000000
                          3       1    1dyz              1.250000       4.212720
                                                         0.504000       0.000000
                                                         0.203000       0.000000
                          3       1    1dz2              1.250000       2.432215
                                                         0.504000       0.000000
                                                         0.203000       0.000000

                          3       2    2dx2              1.250000       0.000000
                                                         0.504000       0.496207
                                                         0.203000       0.000000
                          3       2    2dxy              1.250000       0.000000
                                                         0.504000       0.859456
                                                         0.203000       0.000000
                          3       2    2dxz              1.250000       0.000000
                                                         0.504000       0.859456
                                                         0.203000       0.000000
                          3       2    2dy2              1.250000       0.000000
                                                         0.504000       0.496207
                                                         0.203000       0.000000
                          3       2    2dyz              1.250000       0.000000
                                                         0.504000       0.859456
                                                         0.203000       0.000000
                          3       2    2dz2              1.250000       0.000000
                                                         0.504000       0.496207
                                                         0.203000       0.000000

                          3       3    3dx2              1.250000       0.000000
                                                         0.504000       0.000000
                                                         0.203000       0.101048
                          3       3    3dxy              1.250000       0.000000
                                                         0.504000       0.000000
                                                         0.203000       0.175020
                          3       3    3dxz              1.250000       0.000000
                                                         0.504000       0.000000
                                                         0.203000       0.175020
                          3       3    3dy2              1.250000       0.000000
                                                         0.504000       0.000000
                                                         0.203000       0.101048
                          3       3    3dyz              1.250000       0.000000
                                                         0.504000       0.000000
                                                         0.203000       0.175020
                          3       3    3dz2              1.250000       0.000000
                                                         0.504000       0.000000
                                                         0.203000       0.101048

                          4       1    1fx3              0.869000       1.073369
                                                         0.335000       0.000000
                          4       1    1fx2y             0.869000       2.400125
                                                         0.335000       0.000000
                          4       1    1fx2z             0.869000       2.400125
                                                         0.335000       0.000000
                          4       1    1fxy2             0.869000       2.400125
                                                         0.335000       0.000000
                          4       1    1fxyz             0.869000       4.157139
                                                         0.335000       0.000000
                          4       1    1fxz2             0.869000       2.400125
                                                         0.335000       0.000000
                          4       1    1fy3              0.869000       1.073369
                                                         0.335000       0.000000
                          4       1    1fy2z             0.869000       2.400125
                                                         0.335000       0.000000
                          4       1    1fyz2             0.869000       2.400125
                                                         0.335000       0.000000
                          4       1    1fz3              0.869000       1.073369
                                                         0.335000       0.000000

                          4       2    2fx3              0.869000       0.000000
                                                         0.335000       0.125691
                          4       2    2fx2y             0.869000       0.000000
                                                         0.335000       0.281054
                          4       2    2fx2z             0.869000       0.000000
                                                         0.335000       0.281054
                          4       2    2fxy2             0.869000       0.000000
                                                         0.335000       0.281054
                          4       2    2fxyz             0.869000       0.000000
                                                         0.335000       0.486800
                          4       2    2fxz2             0.869000       0.000000
                                                         0.335000       0.281054
                          4       2    2fy3              0.869000       0.000000
                                                         0.335000       0.125691
                          4       2    2fy2z             0.869000       0.000000
                                                         0.335000       0.281054
                          4       2    2fyz2             0.869000       0.000000
                                                         0.335000       0.281054
                          4       2    2fz3              0.869000       0.000000
                                                         0.335000       0.125691

                          5       1    1gx4              0.683000       0.390025
                          5       1    1gx3y             0.683000       1.031909
                          5       1    1gx3z             0.683000       1.031909
                          5       1    1gx2y2            0.683000       1.332189
                          5       1    1gx2yz            0.683000       2.307419
                          5       1    1gx2z2            0.683000       1.332189
                          5       1    1gxy3             0.683000       1.031909
                          5       1    1gxy2z            0.683000       2.307419
                          5       1    1gxyz2            0.683000       2.307419
                          5       1    1gxz3             0.683000       1.031909
                          5       1    1gy4              0.683000       0.390025
                          5       1    1gy3z             0.683000       1.031909
                          5       1    1gy2z2            0.683000       1.332189
                          5       1    1gyz3             0.683000       1.031909
                          5       1    1gz4              0.683000       0.390025

     RI Auxiliary Basis Set                                        cc-pVQZ-RIFIT

       Number of orbital shell sets:                                          38
       Number of orbital shells:                                              38
       Number of primitive Cartesian functions:                               38
       Number of Cartesian basis functions:                                  212
       Number of spherical basis functions:                                  158
       Norm type:                                                              2

       Normalised Cartesian orbitals:

                        Set   Shell   Orbital            Exponent    Coefficient

                          1       1    1s                0.150649       0.172339

                          2       1    1dx2              0.232137       0.127780
                          2       1    1dxy              0.232137       0.221321
                          2       1    1dxz              0.232137       0.221321
                          2       1    1dy2              0.232137       0.127780
                          2       1    1dyz              0.232137       0.221321
                          2       1    1dz2              0.232137       0.127780

                          3       1    1px               0.267275       0.273929
                          3       1    1py               0.267275       0.273929
                          3       1    1pz               0.267275       0.273929

                          4       1    1fx3              0.360860       0.148582
                          4       1    1fx2y             0.360860       0.332240
                          4       1    1fx2z             0.360860       0.332240
                          4       1    1fxy2             0.360860       0.332240
                          4       1    1fxyz             0.360860       0.575457
                          4       1    1fxz2             0.360860       0.332240
                          4       1    1fy3              0.360860       0.148582
                          4       1    1fy2z             0.360860       0.332240
                          4       1    1fyz2             0.360860       0.332240
                          4       1    1fz3              0.360860       0.148582

                          5       1    1s                0.375184       0.341659

                          6       1    1dx2              0.450266       0.407362
                          6       1    1dxy              0.450266       0.705572
                          6       1    1dxz              0.450266       0.705572
                          6       1    1dy2              0.450266       0.407362
                          6       1    1dyz              0.450266       0.705572
                          6       1    1dz2              0.450266       0.407362

                          7       1    1px               0.494618       0.591258
                          7       1    1py               0.494618       0.591258
                          7       1    1pz               0.494618       0.591258

                          8       1    1s                0.563400       0.463471

                          9       1    1gx4              0.576559       0.244769
                          9       1    1gx3y             0.576559       0.647598
                          9       1    1gx3z             0.576559       0.647598
                          9       1    1gx2y2            0.576559       0.836046
                          9       1    1gx2yz            0.576559       1.448074
                          9       1    1gx2z2            0.576559       0.836046
                          9       1    1gxy3             0.576559       0.647598
                          9       1    1gxy2z            0.576559       1.448074
                          9       1    1gxyz2            0.576559       1.448074
                          9       1    1gxz3             0.576559       0.647598
                          9       1    1gy4              0.576559       0.244769
                          9       1    1gy3z             0.576559       0.647598
                          9       1    1gy2z2            0.576559       0.836046
                          9       1    1gyz3             0.576559       0.647598
                          9       1    1gz4              0.576559       0.244769

                         10       1    1fx3              0.731222       0.727889
                         10       1    1fx2y             0.731222       1.627609
                         10       1    1fx2z             0.731222       1.627609
                         10       1    1fxy2             0.731222       1.627609
                         10       1    1fxyz             0.731222       2.819102
                         10       1    1fxz2             0.731222       1.627609
                         10       1    1fy3              0.731222       0.727889
                         10       1    1fy2z             0.731222       1.627609
                         10       1    1fyz2             0.731222       1.627609
                         10       1    1fz3              0.731222       0.727889

                         11       1    1px               0.886197       1.225611
                         11       1    1py               0.886197       1.225611
                         11       1    1pz               0.886197       1.225611

                         12       1    1dx2              0.944161       1.488469
                         12       1    1dxy              0.944161       2.578104
                         12       1    1dxz              0.944161       2.578104
                         12       1    1dy2              0.944161       1.488469
                         12       1    1dyz              0.944161       2.578104
                         12       1    1dz2              0.944161       1.488469

                         13       1    1s                0.970556       0.696908

                         14       1    1hx5              1.017936       0.786023
                         14       1    1hx4y             1.017936       2.358068
                         14       1    1hx4z             1.017936       2.358068
                         14       1    1hx3y2            1.017936       3.602008
                         14       1    1hx3yz            1.017936       6.238861
                         14       1    1hx3z2            1.017936       3.602008
                         14       1    1hx2y3            1.017936       3.602008
                         14       1    1hx2y2z           1.017936       8.054335
                         14       1    1hx2yz2           1.017936       8.054335
                         14       1    1hx2z3            1.017936       3.602008
                         14       1    1hxy4             1.017936       2.358068
                         14       1    1hxy3z            1.017936       6.238861
                         14       1    1hxy2z2           1.017936       8.054335
                         14       1    1hxyz3            1.017936       6.238861
                         14       1    1hxz4             1.017936       2.358068
                         14       1    1hy5              1.017936       0.786023
                         14       1    1hy4z             1.017936       2.358068
                         14       1    1hy3z2            1.017936       3.602008
                         14       1    1hy2z3            1.017936       3.602008
                         14       1    1hyz4             1.017936       2.358068
                         14       1    1hz5              1.017936       0.786023

                         15       1    1gx4              1.186741       1.782028
                         15       1    1gx3y             1.186741       4.714804
                         15       1    1gx3z             1.186741       4.714804
                         15       1    1gx2y2            1.186741       6.086785
                         15       1    1gx2yz            1.186741      10.542621
                         15       1    1gx2z2            1.186741       6.086785
                         15       1    1gxy3             1.186741       4.714804
                         15       1    1gxy2z            1.186741      10.542621
                         15       1    1gxyz2            1.186741      10.542621
                         15       1    1gxz3             1.186741       4.714804
                         15       1    1gy4              1.186741       1.782028
                         15       1    1gy3z             1.186741       4.714804
                         15       1    1gy2z2            1.186741       6.086785
                         15       1    1gyz3             1.186741       4.714804
                         15       1    1gz4              1.186741       1.782028

                         16       1    1fx3              1.264795       2.497466
                         16       1    1fx2y             1.264795       5.584503
                         16       1    1fx2z             1.264795       5.584503
                         16       1    1fxy2             1.264795       5.584503
                         16       1    1fxyz             1.264795       9.672644
                         16       1    1fxz2             1.264795       5.584503
                         16       1    1fy3              1.264795       2.497466
                         16       1    1fy2z             1.264795       5.584503
                         16       1    1fyz2             1.264795       5.584503
                         16       1    1fz3              1.264795       2.497466

                         17       1    1px               1.558179       2.481485
                         17       1    1py               1.558179       2.481485
                         17       1    1pz               1.558179       2.481485

                         18       1    1dx2              1.636336       3.896606
                         18       1    1dxy              1.636336       6.749119
                         18       1    1dxz              1.636336       6.749119
                         18       1    1dy2              1.636336       3.896606
                         18       1    1dyz              1.636336       6.749119
                         18       1    1dz2              1.636336       3.896606

                         19       1    1s                2.221999       1.297084

                         20       1    1fx3              2.343299      10.001540
                         20       1    1fx2y             2.343299      22.364123
                         20       1    1fx2z             2.343299      22.364123
                         20       1    1fxy2             2.343299      22.364123
                         20       1    1fxyz             2.343299      38.735796
                         20       1    1fxz2             2.343299      22.364123
                         20       1    1fy3              2.343299      10.001540
                         20       1    1fy2z             2.343299      22.364123
                         20       1    1fyz2             2.343299      22.364123
                         20       1    1fz3              2.343299      10.001540

                         21       1    1px               2.932504       5.470012
                         21       1    1py               2.932504       5.470012
                         21       1    1pz               2.932504       5.470012

                         22       1    1gx4              3.463466      33.891480
                         22       1    1gx3y             3.463466      89.668429
                         22       1    1gx3z             3.463466      89.668429
                         22       1    1gx2y2            3.463466     115.761444
                         22       1    1gx2yz            3.463466     200.504702
                         22       1    1gx2z2            3.463466     115.761444
                         22       1    1gxy3             3.463466      89.668429
                         22       1    1gxy2z            3.463466     200.504702
                         22       1    1gxyz2            3.463466     200.504702
                         22       1    1gxz3             3.463466      89.668429
                         22       1    1gy4              3.463466      33.891480
                         22       1    1gy3z             3.463466      89.668429
                         22       1    1gy2z2            3.463466     115.761444
                         22       1    1gyz3             3.463466      89.668429
                         22       1    1gz4              3.463466      33.891480

                         23       1    1dx2              3.587875      15.394824
                         23       1    1dxy              3.587875      26.664617
                         23       1    1dxz              3.587875      26.664617
                         23       1    1dy2              3.587875      15.394824
                         23       1    1dyz              3.587875      26.664617
                         23       1    1dz2              3.587875      15.394824

                         24       1    1s                4.113047       2.058415

                         25       1    1fx3              5.024624      55.646445
                         25       1    1fx2y             5.024624     124.429235
                         25       1    1fx2z             5.024624     124.429235
                         25       1    1fxy2             5.024624     124.429235
                         25       1    1fxyz             5.024624     215.517757
                         25       1    1fxz2             5.024624     124.429235
                         25       1    1fy3              5.024624      55.646445
                         25       1    1fy2z             5.024624     124.429235
                         25       1    1fyz2             5.024624     124.429235
                         25       1    1fz3              5.024624      55.646445

                         26       1    1px               5.663551      12.453777
                         26       1    1py               5.663551      12.453777
                         26       1    1pz               5.663551      12.453777

                         27       1    1s                6.960910       3.054285

                         28       1    1dx2              7.472938      55.592907
                         28       1    1dxy              7.472938      96.289739
                         28       1    1dxz              7.472938      96.289739
                         28       1    1dy2              7.472938      55.592907
                         28       1    1dyz              7.472938      96.289739
                         28       1    1dz2              7.472938      55.592907

                         29       1    1fx3             12.276132     415.281806
                         29       1    1fx2y            12.276132     928.598349
                         29       1    1fx2z            12.276132     928.598349
                         29       1    1fxy2            12.276132     928.598349
                         29       1    1fxyz            12.276132    1608.379519
                         29       1    1fxz2            12.276132     928.598349
                         29       1    1fy3             12.276132     415.281806
                         29       1    1fy2z            12.276132     928.598349
                         29       1    1fyz2            12.276132     928.598349
                         29       1    1fz3             12.276132     415.281806

                         30       1    1s               12.500842       4.738213

                         31       1    1px              13.432334      36.654680
                         31       1    1py              13.432334      36.654680
                         31       1    1pz              13.432334      36.654680

                         32       1    1dx2             16.090063     212.757798
                         32       1    1dxy             16.090063     368.507315
                         32       1    1dxz             16.090063     368.507315
                         32       1    1dy2             16.090063     212.757798
                         32       1    1dyz             16.090063     368.507315
                         32       1    1dz2             16.090063     212.757798

                         33       1    1s               38.356308      10.984687

                         34       1    1dx2             41.816786    1131.808869
                         34       1    1dxy             41.816786    1960.350466
                         34       1    1dxz             41.816786    1960.350466
                         34       1    1dy2             41.816786    1131.808869
                         34       1    1dyz             41.816786    1960.350466
                         34       1    1dz2             41.816786    1131.808869

                         35       1    1px              88.518565     387.019675
                         35       1    1py              88.518565     387.019675
                         35       1    1pz              88.518565     387.019675

                         36       1    1s              123.172952      26.350970

                         37       1    1px             180.414472     942.495537
                         37       1    1py             180.414472     942.495537
                         37       1    1pz             180.414472     942.495537

                         38       1    1s              400.115713      63.760145

       Atomic covalent radius [Angstrom]:                                  1.020

       Atomic van der Waals radius [Angstrom]:                             1.800

     The atoms of this atomic kind are PAW atoms (GAPW):
       Hard Gaussian function radius:                                      1.512
       Rho0 radius:                                                        1.512
       Maximum GTO radius used for PAW projector construction:            24.566

     GAPW Soft Basis Set                                            cc-pVQZ_soft

       Number of orbital shell sets:                                           5
       Number of orbital shells:                                              17
       Number of primitive Cartesian functions:                               15
       Number of Cartesian basis functions:                                   74
       Number of spherical basis functions:                                   59
       Norm type:                                                              2

       Normalised Cartesian orbitals:

                        Set   Shell   Orbital            Exponent    Coefficient

                          1       1    1px               3.541000       2.621971
                                                         1.591000       0.435360
                                                         0.620500       0.011900
                                                         0.242000       0.000016
                                                         0.090140       0.000029
                          1       1    1py               3.541000       2.621971
                                                         1.591000       0.435360
                                                         0.620500       0.011900
                                                         0.242000       0.000016
                                                         0.090140       0.000029
                          1       1    1pz               3.541000       2.621971
                                                         1.591000       0.435360
                                                         0.620500       0.011900
                                                         0.242000       0.000016
                                                         0.090140       0.000029

                          1       2    2px               3.541000       0.000000
                                                         1.591000       0.000000
                                                         0.620500       0.784996
                                                         0.242000       0.000000
                                                         0.090140       0.000000
                          1       2    2py               3.541000       0.000000
                                                         1.591000       0.000000
                                                         0.620500       0.784996
                                                         0.242000       0.000000
                                                         0.090140       0.000000
                          1       2    2pz               3.541000       0.000000
                                                         1.591000       0.000000
                                                         0.620500       0.784996
                                                         0.242000       0.000000
                                                         0.090140       0.000000

                          1       3    3px               3.541000      -0.818282
                                                         1.591000       0.023514
                                                         0.620500       0.281689
                                                         0.242000       0.127217
                                                         0.090140       0.017521
                          1       3    3py               3.541000      -0.818282
                                                         1.591000       0.023514
                                                         0.620500       0.281689
                                                         0.242000       0.127217
                                                         0.090140       0.017521
                          1       3    3pz               3.541000      -0.818282
                                                         1.591000       0.023514
                                                         0.620500       0.281689
                                                         0.242000       0.127217
                                                         0.090140       0.017521

                          1       4    4px               3.541000       0.000000
                                                         1.591000       0.000000
                                                         0.620500       0.000000
                                                         0.242000       0.241941
                                                         0.090140       0.000000
                          1       4    4py               3.541000       0.000000
                                                         1.591000       0.000000
                                                         0.620500       0.000000
                                                         0.242000       0.241941
                                                         0.090140       0.000000
                          1       4    4pz               3.541000       0.000000
                                                         1.591000       0.000000
                                                         0.620500       0.000000
                                                         0.242000       0.241941
                                                         0.090140       0.000000

                          1       5    5px               3.541000       0.000000
                                                         1.591000       0.000000
                                                         0.620500       0.000000
                                                         0.242000       0.000000
                                                         0.090140       0.070402
                          1       5    5py               3.541000       0.000000
                                                         1.591000       0.000000
                                                         0.620500       0.000000
                                                         0.242000       0.000000
                                                         0.090140       0.070402
                          1       5    5pz               3.541000       0.000000
                                                         1.591000       0.000000
                                                         0.620500       0.000000
                                                         0.242000       0.000000
                                                         0.090140       0.070402

                          2       1    1s                1.909000       0.002524
                                                         0.627000      -0.000420
                                                         0.287300       0.000125
                                                         0.117200      -0.000018

                          2       2    2s                1.909000       0.499763
                                                         0.627000       0.019555
                                                         0.287300      -0.002042
                                                         0.117200       0.000275

                          2       3    3s                1.909000       0.000000
                                                         0.627000       0.502182
                                                         0.287300       0.000000
                                                         0.117200       0.000000

                          2       4    4s                1.909000       0.000000
                                                         0.627000       0.000000
                                                         0.287300       0.279680
                                                         0.117200       0.000000

                          2       5    5s                1.909000      -0.385618
                                                         0.627000       0.132474
                                                         0.287300       0.186505
                                                         0.117200       0.041179

                          2       6    6s                1.909000       0.000000
                                                         0.627000       0.000000
                                                         0.287300       0.000000
                                                         0.117200       0.142760

                          3       1    1dx2              1.250000       2.432215
                                                         0.504000       0.000000
                                                         0.203000       0.000000
                          3       1    1dxy              1.250000       4.212720
                                                         0.504000       0.000000
                                                         0.203000       0.000000
                          3       1    1dxz              1.250000       4.212720
                                                         0.504000       0.000000
                                                         0.203000       0.000000
                          3       1    1dy2              1.250000       2.432215
                                                         0.504000       0.000000
                                                         0.203000       0.000000
                          3       1    1dyz              1.250000       4.212720
                                                         0.504000       0.000000
                                                         0.203000       0.000000
                          3       1    1dz2              1.250000       2.432215
                                                         0.504000       0.000000
                                                         0.203000       0.000000

                          3       2    2dx2              1.250000       0.000000
                                                         0.504000       0.496207
                                                         0.203000       0.000000
                          3       2    2dxy              1.250000       0.000000
                                                         0.504000       0.859456
                                                         0.203000       0.000000
                          3       2    2dxz              1.250000       0.000000
                                                         0.504000       0.859456
                                                         0.203000       0.000000
                          3       2    2dy2              1.250000       0.000000
                                                         0.504000       0.496207
                                                         0.203000       0.000000
                          3       2    2dyz              1.250000       0.000000
                                                         0.504000       0.859456
                                                         0.203000       0.000000
                          3       2    2dz2              1.250000       0.000000
                                                         0.504000       0.496207
                                                         0.203000       0.000000

                          3       3    3dx2              1.250000       0.000000
                                                         0.504000       0.000000
                                                         0.203000       0.101048
                          3       3    3dxy              1.250000       0.000000
                                                         0.504000       0.000000
                                                         0.203000       0.175020
                          3       3    3dxz              1.250000       0.000000
                                                         0.504000       0.000000
                                                         0.203000       0.175020
                          3       3    3dy2              1.250000       0.000000
                                                         0.504000       0.000000
                                                         0.203000       0.101048
                          3       3    3dyz              1.250000       0.000000
                                                         0.504000       0.000000
                                                         0.203000       0.175020
                          3       3    3dz2              1.250000       0.000000
                                                         0.504000       0.000000
                                                         0.203000       0.101048

                          4       1    1fx3              0.869000       1.073369
                                                         0.335000       0.000000
                          4       1    1fx2y             0.869000       2.400125
                                                         0.335000       0.000000
                          4       1    1fx2z             0.869000       2.400125
                                                         0.335000       0.000000
                          4       1    1fxy2             0.869000       2.400125
                                                         0.335000       0.000000
                          4       1    1fxyz             0.869000       4.157139
                                                         0.335000       0.000000
                          4       1    1fxz2             0.869000       2.400125
                                                         0.335000       0.000000
                          4       1    1fy3              0.869000       1.073369
                                                         0.335000       0.000000
                          4       1    1fy2z             0.869000       2.400125
                                                         0.335000       0.000000
                          4       1    1fyz2             0.869000       2.400125
                                                         0.335000       0.000000
                          4       1    1fz3              0.869000       1.073369
                                                         0.335000       0.000000

                          4       2    2fx3              0.869000       0.000000
                                                         0.335000       0.125691
                          4       2    2fx2y             0.869000       0.000000
                                                         0.335000       0.281054
                          4       2    2fx2z             0.869000       0.000000
                                                         0.335000       0.281054
                          4       2    2fxy2             0.869000       0.000000
                                                         0.335000       0.281054
                          4       2    2fxyz             0.869000       0.000000
                                                         0.335000       0.486800
[...]
 fft3d_ps                         19741 12.1  216.096  272.019  507.078  526.692
 ps_wavelet_solve                  1331  9.3  297.874  337.887  381.834  387.239
 qs_rho_update_rho_low             1333  5.5    0.014    0.017  344.932  344.954
 calculate_rho_elec                1333  6.5    6.482    7.691  341.518  341.530
 qs_energies_properties               1  3.0    0.000    0.000  312.177  312.177
 tddfpt                               1  4.0    0.000    0.001  312.177  312.177
 tddfpt_energies                      1  5.0    0.000    0.001  312.117  312.117
 tddfpt_davidson_solver               1  6.0    0.001    0.003  310.424  310.424
 tddfpt_compute_Aop_evects            9  7.0    0.000    0.000  308.338  308.338
 mp_alltoall_d54                   1331 10.3   48.636  293.304   48.636  293.304
 fhxc_kernel                          9  8.0    0.009    0.011  273.937  273.937
 mp_alltoall_z22v                 19741 14.1  247.394  266.602  247.394  266.602
 xc_pw_derive                      5691 11.0    0.066    0.084  259.911  263.750
 qs_vxc_create                     1151  8.0    0.013    0.014  260.206  260.210
 density_rs2pw                     1333  7.5    0.080    0.094  232.712  245.891
 integrate_four_center             1511  9.2   30.803   66.517  200.195  200.843
 xc_rho_set_and_dset_create        1152 10.0    2.700    3.410  165.679  182.359
 hfx_ks_matrix                     1151  8.0    0.041    0.046  169.126  169.714
 mp_sync                           8535 11.2  132.581  169.292  132.581  169.292
 prepare_gapw_den                  1332  8.1    0.023    0.028  158.524  159.959
 transfer_rs2pw                    6665  8.9    0.175    0.242  142.734  156.656
 x_to_yz                           8920 13.6   27.087   32.368  150.856  156.037
 yz_to_x                           8923 12.8   14.227   17.166  137.709  150.562
 integrate_four_center_main        1511 10.2    1.570   71.381    7.082  137.312
 integrate_four_center_bin       116441 11.2    5.512  136.370    5.512  136.370
 xc_vxc_pw_create                   385  9.0    2.499    3.029  135.880  135.881
 xc_exc_calc                        766  9.0    3.717    4.410  124.313  124.319
 grid_collocate_task_list          1333  7.5   96.683  115.434   96.683  115.434
 put_rho0_on_grid                  1332  9.1    6.565    7.973  112.563  113.999
 mp_alltoall_d11v                 28821 11.9   80.218  113.089   80.218  113.089
 xc_pw_divergence                   565 10.3    0.024    0.030  107.914  110.551
 tddfpt_apply_coulomb               180  9.0    0.004    0.006  109.373  110.172
 mp_waitany                      193830 11.4   90.250  106.272   90.250  106.272
 integrate_v_rspace                 565  9.0    0.013    0.017   99.875  100.533
 transfer_rs2pw_250                2666 10.3   34.084   36.837   87.492   98.976
 transfer_pw2rs                    3592 10.4    0.060    0.068   90.118   92.550
 potential_pw2rs                    565 10.0    0.195    0.217   79.660   80.370
 init_scf_loop                        3  4.0    0.000    0.000   73.906   73.906
 sum_up_and_integrate               385  8.0    0.004    0.005   67.067   67.255
 integrate_vhg0_rspace             1331  8.3    2.362    2.684   63.486   65.407
 transfer_pw2rs_250                1897 10.8   22.457   25.769   61.975   64.989
 mp_sum_d                         27692 10.2   53.937   63.577   53.937   63.577
 tddfpt_apply_xc_analytic           180  9.0    0.256    0.341   61.486   62.384
 mp_alltoall_d45                   1332 10.3   32.151   56.493   32.151   56.493
 calculate_rho_atom                2664  9.1   18.273   42.944   18.273   42.944
 xc_calc_2nd_deriv_analytical       540 10.1    2.153    2.265   36.453   36.547
 pw_scatter_p                      9485 12.7   35.414   36.436   35.414   36.436
 mp_waitall_1                   1840410 13.4   27.224   34.751   27.224   34.751
 tddfpt_apply_hfx                     9  8.0    0.003    0.004   33.529   33.530
 cp2k_distribution_to_z_slices     1331  9.3   12.766   13.918   31.191   33.210
 tddft_hfx_matrix                   360  9.0    0.009    0.012   31.136   31.241
 pw_derive                         9684 11.3   28.563   30.961   28.563   30.961
 qs_scf_new_mos                    1151  5.0    0.005    0.006   30.589   30.637
 qs_scf_loop_do_ot                 1151  6.0    0.006    0.007   30.584   30.631
 transfer_rs2pw_30                 1333  9.5   12.630   13.220   29.749   30.547
 pw_gather_p                      10256 11.6   27.108   29.957   27.108   29.957
 ot_scf_mini                       1151  7.0    0.015    0.016   28.606   28.652
 gaVxcgb_GC                         565  9.3    0.726   27.071    0.726   27.071
 mp_sum_dv                        53920 11.3   25.463   26.556   25.463   26.556
 dbcsr_multiply_generic           14791  9.7    0.610    0.669   25.438   25.672
 calculate_vxc_atom                1151  8.0    0.469    5.328   24.484   24.489
 pw_copy                          15780 10.6   20.861   22.264   20.861   22.264
 mp_sendrecv_dv                  253270 10.5   21.116   22.152   21.116   22.152
 fft_wrap_pw1pw2_90                1898 10.3    0.663    0.942   17.206   21.842
 transfer_rs2pw_90                 1333  9.5    4.871    5.418   18.998   21.803
 xc_functional_eval                3814 10.9    0.010    0.022    6.617   21.253
 pbe_lda_eval                      3814 11.9    6.607   21.236    6.607   21.236
 rs_grid_zero                      5126 10.8   19.841   20.999   19.841   20.999
 pw_poisson_set                    1332  9.3    0.046    0.053   20.511   20.720
 rs_gather_matrices                 565 10.0    0.050    0.065   18.785   20.341
 grid_integrate_task_list           565 10.0    1.414   19.785    1.414   19.785
 transfer_pw2rs_30                  565 12.0    9.639   11.016   16.046   16.885
 mp_sum_dm                        12053  8.1   10.585   14.300   10.585   14.300
 pw_integral_ab_c1d_c1d_gs         1331  9.3    9.726    9.827   11.692   13.475
 qs_ot_get_p                       1154  8.0    0.007    0.007   12.961   12.991
 multiply_cannon                  14791 10.7    1.328    1.379   12.392   12.894
 pw_copy_to_array                 10256 11.6    9.921   12.649    9.921   12.649
 integrate_four_center_getP        1511 10.2    0.274    0.309   10.815   11.419
 mp_isendrecv_dv                 394440 11.7    4.911   11.063    4.911   11.063
 calculate_xc_2nd_deriv_atom        180  9.0    0.073    1.642    0.330   10.572
 transfer_pw2rs_90                  565 12.0    2.201    2.552    9.110   10.427
 calc_screening_functions             1 10.0    7.807    8.291    9.403    9.882
 pw_axpy                           9668  9.2    9.001    9.670    9.001    9.670
 ot_mini                           1151  8.0    0.005    0.005    9.593    9.650
 qs_ot_p2m_diag                     922  9.0    0.019    0.054    9.592    9.644
 integrate_four_center_dist_KS     1511 10.2    0.291    0.324    9.525    9.590
 multiply_cannon_loop             14791 11.7    2.210    2.282    8.892    9.409
 qs_ot_get_derivative               385  9.0    0.003    0.003    8.799    8.808
 pw_copy_from_array                9485 12.7    6.895    8.475    6.895    8.475
 mp_isend_dv                     805986 13.3    4.524    8.191    4.524    8.191
 mp_isend_dm3                     38766 11.4    3.514    7.790    3.514    7.790
 make_m2s                         29582 10.7    0.521    0.599    7.139    7.563
 pw_zero                           8486 10.3    6.304    7.041    6.304    7.041
 transfer_rs2pw_10                 1333  9.5    2.323    2.558    6.320    6.639
 Vh_1c_gg_integrals                1331  8.3    0.267    4.852    5.826    6.429
 cp_dbcsr_syevd                     922 10.0    0.050    0.052    6.411    6.422
 mp_irecv_dm3                     38766 11.4    3.447    6.255    3.447    6.255
 qs_ot_get_derivative_diag          306 10.0    0.007    0.007    5.752    5.760
 mp_max_i                          1799  8.0    4.072    5.423    4.072    5.423
 cp_dbcsr_sm_fm_multiply           1131  8.6    0.022    0.024    5.254    5.394
 make_images                      29582 11.7    1.164    1.216    5.110    5.316
 dbcsr_complete_redistribute       5481 11.0    0.201    0.321    4.804    4.943
 cp_fm_syevd                        973 10.8    0.005    0.007    4.579    4.600
 mp_sum_l                         69026 10.7    3.707    4.037    3.707    4.037
 fft_wrap_pw1pw2_30                1898 10.3    0.121    0.141    3.652    4.026
 qs_ot_get_orbitals                1151  8.0    0.004    0.005    3.853    3.890
 copy_dbcsr_to_fm                  2147 10.1    0.028    0.029    3.822    3.871
 cp_fm_redistribute_end             973 11.8    2.109    3.691    2.133    3.719
 scale_and_distribute              2662 10.3    3.291    3.705    3.291    3.705
 update_ks_atom                    1331  8.1    0.160    0.860    2.158    3.603
 mp_bcast_dm                       9144  9.5    2.028    3.497    2.028    3.497
 calculate_rho_atom_coeff          1333  6.5    0.272    0.926    3.400    3.421
 transfer_pw2rs_10                  565 12.0    1.037    1.158    2.928    3.289
 offload_free_buffer               1339  9.2    1.617    3.248    1.617    3.248
 cp_fm_syevd_base                   973 11.8    1.569    3.150    1.569    3.150
 powell_optimize                1170833 11.0    2.910    3.085    2.910    3.085
 calculate_rho0_atom               2664  9.1    2.826    2.945    2.826    2.945
 copy_fm_to_dbcsr                  3332 10.0    0.015    0.016    2.755    2.890
 make_images_sizes                29582 12.7    0.031    0.033    2.155    2.294
 mp_alltoall_i44                  29582 13.7    2.124    2.263    2.124    2.263
 mp_alltoall_i11v                 19965 12.1    2.196    2.200    2.196    2.200
 multiply_cannon_metrocomm4      325402 12.7    0.962    1.040    1.856    2.072
 multiply_cannon_metrocomm3      354984 12.7    0.561    0.582    1.600    2.057
 calc_pair_dist_radii                 1 10.0    0.621    0.633    1.934    2.024
 calculate_dm_sparse               1152  7.0    0.003    0.004    1.974    2.007
 multiply_cannon_metrocomm2      310611 12.7    0.919    0.976    1.693    1.858
 cp_dbcsr_sm_fm_multiply_core      1131  9.6    0.003    0.003    1.689    1.827
 dbcsr_make_images_dense          24218 11.9    0.396    0.452    1.118    1.632
 dbcsr_desymmetrize_deep           2148 11.0    0.040    0.049    1.537    1.589
 fft_wrap_pw1pw2_10                1898 10.3    0.031    0.034    1.460    1.531
 mp_irecv_dv                     799104 13.3    0.826    1.448    0.826    1.448
 mp_allgather_i34                 14791 11.7    1.279    1.426    1.279    1.426
 multiply_cannon_metrocomm1      354984 12.7    0.390    0.403    1.024    1.384
 create_qs_kind_set                   1  2.0    0.000    0.000    1.283    1.284
 read_qs_kind                         2  3.0    0.703    0.717    1.283    1.284
 mp_rank_compare                  19741 13.1    1.179    1.273    1.179    1.273
 tddfpt_orthonormalize_psi1_psi      10  6.9    0.023    0.026    1.251    1.251
 dbcsr_make_dense_low             71136 12.8    0.354    0.368    0.540    1.179
 hybrid_alltoall_any              31730 13.6    0.249    0.396    0.967    1.159
 dbcsr_create_new                303820 12.4    0.811    0.838    1.113    1.151
 arnoldi_extremal                  1154  9.0    0.019    0.021    1.114    1.137
 arnoldi_normal_ev                 1157 10.0    0.019    0.021    1.105    1.126
 qs_ot_get_derivative_taylor         79 10.0    0.002    0.002    1.051    1.055
 make_images_data                 29582 12.7    0.283    0.383    0.624    1.007
 mp_alltoall_i22                   8087 12.1    0.815    0.995    0.815    0.995
 mp_alltoall_z11v                  1898 13.3    0.886    0.957    0.886    0.957
 pw_scale                          1900  9.5    0.735    0.951    0.735    0.951
 dbcsr_finalize                   29917 11.2    0.132    0.207    0.620    0.909
 tddfpt_print_nto_analysis            1  6.0    0.002    0.003    0.892    0.892
 cp_dbcsr_plus_fm_fm_t              181  9.0    0.003    0.003    0.882    0.887
 cp_fm_redistribute_start           973 11.8    0.688    0.711    0.871    0.883
 tddfpt_apply_energy_diff             9  8.0    0.001    0.001    0.872    0.872
 multiply_cannon_multrec         354984 12.7    0.448    0.796    0.509    0.864
 pw_poisson_rebuild                1331  9.3    0.001    0.001    0.800    0.814
 ps_wavelet_create                    1 10.0    0.000    0.000    0.799    0.813
 RS_z_slice_distribution              1 11.0    0.680    0.749    0.799    0.813
 prepare_dr1dr                      540 11.1    0.646    0.746    0.646    0.746
 ot_new_cg_direction                385  9.0    0.003    0.004    0.742    0.743
 build_subspace                    1157 11.0    0.035    0.038    0.708    0.730
 tddfpt_compute_residual_vects        8  7.0    0.001    0.001    0.716    0.716
 rs_scatter_matrices               1333  7.5    0.010    0.037    0.702    0.715
 dbcsr_special_finalize           73955 12.7    0.167    0.173    0.553    0.694
 integrate_four_center_load        1511 10.2    0.003    0.004    0.481    0.684
 hfx_load_balance                     1 11.0    0.000    0.000    0.478    0.681
 hfx_load_balance_range               1 12.0    0.000    0.000    0.470    0.674
 apply_preconditioner_dbcsr         388 10.0    0.001    0.001    0.641    0.673
 apply_single                       388 11.0    0.001    0.001    0.641    0.672
 vxc_of_r_new                      2302  9.0    0.002    0.054    0.020    0.666
 xz_to_yz                          1333 11.5    0.047    0.056    0.612    0.645
 make_dense_data                  71136 13.8    0.027    0.289    0.033    0.623
 dbcsr_matrix_vector_mult          7256 12.0    0.068    0.071    0.360    0.597
 parser_read_line                148877  4.0    0.052    0.056    0.580    0.588
 mp_isend_iv                     695174 13.7    0.528    0.578    0.528    0.578
 dbcsr_iterator_start            233892 12.4    0.220    0.474    0.271    0.565
 dbcsr_new_transposed              7044 10.7    0.040    0.044    0.529    0.546
 cp_fm_geeig                         20  7.0    0.001    0.001    0.541    0.542
 parser_read_line_low               160  5.0    0.051    0.243    0.528    0.535
 parallel_gemm_fm                  1520  8.4    0.002    0.002    0.512    0.530
 parallel_gemm_fm_gemm             1520  9.4    0.002    0.002    0.511    0.528
 cp_fm_gemm                        1520 10.4    0.509    0.526    0.509    0.526
 dbcsr_destroy                   294383 11.5    0.355    0.372    0.475    0.504
 dbcsr_merge_all                  27270 12.1    0.279    0.384    0.344    0.502
 broadcast_input_information        160  6.0    0.122    0.136    0.477    0.487
 dbcsr_data_new                  789532 13.0    0.327    0.470    0.327    0.470
 mp_sum_b                         24221 10.9    0.438    0.445    0.438    0.445
 tddfpt_construct_ground_state_       1  6.0    0.000    0.000    0.433    0.439
 dbcsr_make_dense                 10591 11.1    0.044    0.047    0.228    0.425
 dbcsr_redistribute                 458 12.0    0.012    0.014    0.411    0.419
 mp_cart_sub                       4297 12.0    0.413    0.416    0.413    0.416
 dbcsr_data_release             1363110 13.2    0.343    0.415    0.343    0.415
 rs_grid_create                    1337  9.3    0.007    0.010    0.238    0.413
 dbcsr_add_d                       6385  9.4    0.010    0.010    0.045    0.412
 offload_create_buffer             1339 10.3    0.231    0.406    0.231    0.406
 yz_to_xz                           565 14.0    0.032    0.048    0.353    0.403
 dbcsr_add_anytype                 6385 10.4    0.011    0.072    0.035    0.403
 dbcsr_sym_matrix_vector_mult      2296  8.5    0.036    0.039    0.259    0.383
 cp_fm_trace_a1b1t1_aa            16500  8.0    0.077    0.085    0.377    0.381
 mp_cart_create                    4814 10.4    0.341    0.367    0.349    0.377
 dbcsr_iterator_stop             233892 12.4    0.162    0.311    0.199    0.365
 qs_energies_init_hamiltonians        1  3.0    0.000    0.000    0.361    0.361
 build_core_hamiltonian_matrix        1  4.0    0.000    0.000    0.353    0.353
 overlap_condnum                      1  5.0    0.000    0.000    0.349    0.351
 setup_buffer_matrices            29582 11.7    0.109    0.115    0.338    0.348
 init_scf_run                         1  3.0    0.000    0.000    0.343    0.343
 scf_env_initial_rho_setup            1  4.0    0.000    0.000    0.343    0.343
 qs_init_subsys                       1  2.0    0.006    0.010    0.337    0.338
 mp_irecv_iv                     695177 13.7    0.303    0.332    0.303    0.332
 dbcsr_make_undense               10591 11.1    0.069    0.148    0.134    0.321
 dbcsr_work_create               103831 12.4    0.171    0.194    0.241    0.312
 arnoldi_conjugate_gradient           7  6.0    0.008    0.009    0.306    0.306
 qs_ot_p2m_taylor                   232  9.0    0.002    0.002    0.281    0.305
 qs_env_setup                         1  3.0    0.000    0.000    0.297    0.305
 qs_env_rebuild_pw_env                2  3.5    0.000    0.000    0.295    0.303
 pw_env_rebuild                       1  5.0    0.001    0.001    0.295    0.303
 dbcsr_col_vec_to_rep_row          9552 12.2    0.067    0.076    0.157    0.297
 xc_pw_smooth                       385 10.0    0.001    0.002    0.203    0.292
 dbcsr_dot                         3843  8.7    0.023    0.081    0.256    0.289
 arnoldi_init                      1157 11.0    0.013    0.017    0.251    0.275
 prepare_preconditioner               3  5.0    0.000    0.000    0.270    0.270
 make_preconditioner                  3  6.0    0.000    0.000    0.270    0.270
 dbcsr_work_destroy_all          103831 13.4    0.158    0.184    0.209    0.253
 make_full_single_inverse             3  7.0    0.000    0.000    0.250    0.251
 create_kernel_env                    1  6.0    0.000    0.000    0.227    0.249
 xc_prep_2nd_deriv                    1  7.0    0.000    0.000    0.227    0.249
 quick_finalize                   55561 14.0    0.114    0.141    0.192    0.247
 Gram_Schmidt_ortho                6672 11.8    0.007    0.013    0.189    0.242
 pw_grid_setup                        4  6.0    0.000    0.000    0.232    0.240
 pw_grid_setup_internal               4  7.0    0.006    0.008    0.232    0.240
 dbcsr_mm_multrec_init            14791 11.7    0.028    0.036    0.204    0.229
 mp_bcast_i_src                     640  7.0    0.193    0.225    0.193    0.225
 arnoldi_generalized_ev               3  8.0    0.000    0.000    0.210    0.210
 write_mo_set_to_restart           1151  5.0    0.017    0.070    0.189    0.206
 dbcsr_merge_single_wm            21000 12.9    0.100    0.123    0.118    0.205
 gev_build_subspace                  27  9.0    0.003    0.004    0.197    0.197
 dbcsr_switch_data_area          152274 13.9    0.140    0.146    0.188    0.196
 dbcsr_make_untransposed_blocks   18764 10.7    0.102    0.130    0.165    0.196
 dbcsr_mm_csr_init                14791 12.7    0.140    0.158    0.176    0.196
 -------------------------------------------------------------------------------

 The number of warnings for this run is : 2
 
 -------------------------------------------------------------------------------
  **** **** ******  **  PROGRAM ENDED AT                 2025-04-24 01:42:42.190
 ***** ** ***  *** **   PROGRAM RAN ON                              i04r07c06s10
 **    ****   ******    PROGRAM RAN BY                                   di38fab
 ***** **    ** ** **   PROGRAM PROCESS ID                                999734
  **** **  *******  **  PROGRAM STOPPED IN /hppfs/scratch/04/di38fab/07_MOL_non_
                                           aug/05_MOL_non_aug/05_MOL/W4-11+ALK/s
                                           2o/cc-pVQZ/TDDFT
