 DBCSR| CPU Multiplication driver                                           BLAS (U)
 DBCSR| Multrec recursion limit                                              512 (U)
 DBCSR| Multiplication stack size                                           1000 (D)
 DBCSR| Maximum elements for images                                    UNLIMITED (U)
 DBCSR| Multiplicative factor virtual images                                   1 (U)
 DBCSR| Use multiplication densification                                       T (D)
 DBCSR| Multiplication size stacks                                             3 (U)
 DBCSR| Use memory pool for CPU allocation                                     F (U)
 DBCSR| Number of 3D layers                                               SINGLE (U)
 DBCSR| Use MPI memory allocation                                              F (U)
 DBCSR| Use RMA algorithm                                                      F (U)
 DBCSR| Use Communication thread                                               T (U)
 DBCSR| Communication thread load                                             75 (D)
 DBCSR| MPI: My process id                                                     0
 DBCSR| MPI: Number of processes                                              96
 DBCSR| OMP: Current number of threads                                         4
 DBCSR| OMP: Max number of threads                                             4
 DBCSR| Split modifier for TAS multiplication algorithm                  1.0E+00 (U)


  **** **** ******  **  PROGRAM STARTED AT               2025-04-28 04:42:15.068
 ***** ** ***  *** **   PROGRAM STARTED ON                          i03r03c02s08
 **    ****   ******    PROGRAM STARTED BY                               di38fab
 ***** **    ** ** **   PROGRAM PROCESS ID                               2056224
  **** **  *******  **  PROGRAM STARTED IN /hppfs/scratch/04/di38fab/07_MOL_non_
                                           aug/05_MOL_non_aug/05_MOL/W4-11+ALK/c
                                           2h3f/QZVPP/TDDFT

 CP2K| version string:                 CP2K version 2025.1 (Development Version)
 CP2K| source code revision number:                             unknown revision
 CP2K| cp2kflags: omp libint fftw3 libxc parallel scalapack max_contr=4         
 CP2K| is freely available from                            https://www.cp2k.org/
 CP2K| Program compiled at                         Thu Apr 10 16:20:23 CEST 2025
 CP2K| Program compiled on                                               login01
 CP2K| Program compiled for                                        Supermuc-foss
 CP2K| Data directory path                  /hppfs/work/pn36zo/di38fab/cp2k/data
 CP2K| Input file name                                                    GW.inp

 GLOBAL| Force Environment number                                              1
 GLOBAL| Basis set file name            /hppfs/scratch/04/di38fab/04_TMD/BASIS_A
 GLOBAL| Potential file name            /hppfs/work/pn36zo/di38fab/cp2k/data/ALL
 GLOBAL| MM Potential file name                                     MM_POTENTIAL
 GLOBAL| Coordinate file name                                      __STD_INPUT__
 GLOBAL| Method name                                                        CP2K
 GLOBAL| Project name                                                       MoS2
 GLOBAL| Run type                                                         ENERGY
 GLOBAL| FFT library                                                       FFTW3
 GLOBAL| Diagonalization library                                       ScaLAPACK
 GLOBAL| DGEMM library                                                      BLAS
 GLOBAL| Orthonormality check for eigenvectors                          DISABLED
 GLOBAL| Matrix multiplication library                                 ScaLAPACK
 GLOBAL| All-to-all communication in single precision                          F
 GLOBAL| FFTs using library dependent lengths                                  F
 GLOBAL| Grid backend                                                       AUTO
 GLOBAL| Global print level                                               MEDIUM
 GLOBAL| MPI I/O enabled                                                       T
 GLOBAL| Total number of message passing processes                            96
 GLOBAL| Number of threads for this process                                    4
 GLOBAL| This output is from process                                           0
 GLOBAL| OpenMP stack size per thread (OMP_STACKSIZE)                    default
 GLOBAL| CPU model name             Intel(R) Xeon(R) Platinum 8174 CPU @ 3.10GHz

 MEMORY| system memory details [Kb]
 MEMORY|                        rank 0           min           max       average
 MEMORY| MemTotal             98429616      98429616      98436664      98435780
 MEMORY| MemFree              84988412      84833376      85050768      84937710
 MEMORY| Buffers                     0             0             0             0
 MEMORY| Cached                2383272       2382384       2399772       2386280
 MEMORY| Slab                  1072224       1072224       1092848       1084462
 MEMORY| SReclaimable           246152        241188        251316        246677
 MEMORY| MemLikelyFree        87617836      87481648      87680104      87570668


 *** Fundamental physical constants (SI units) ***

 *** Literature: B. J. Mohr and B. N. Taylor,
 ***             CODATA recommended values of the fundamental physical
 ***             constants: 2006, Web Version 5.1
 ***             http://physics.nist.gov/constants

 Speed of light in vacuum [m/s]                             2.99792458000000E+08
 Magnetic constant or permeability of vacuum [N/A**2]       1.25663706143592E-06
 Electric constant or permittivity of vacuum [F/m]          8.85418781762039E-12
 Planck constant (h) [J*s]                                  6.62606896000000E-34
 Planck constant (h-bar) [J*s]                              1.05457162825177E-34
 Elementary charge [C]                                      1.60217648700000E-19
 Electron mass [kg]                                         9.10938215000000E-31
 Electron g factor [ ]                                     -2.00231930436220E+00
 Proton mass [kg]                                           1.67262163700000E-27
 Fine-structure constant                                    7.29735253760000E-03
 Rydberg constant [1/m]                                     1.09737315685270E+07
 Avogadro constant [1/mol]                                  6.02214179000000E+23
 Boltzmann constant [J/K]                                   1.38065040000000E-23
 Atomic mass unit [kg]                                      1.66053878200000E-27
 Bohr radius [m]                                            5.29177208590000E-11

 *** Conversion factors ***

 [u] -> [a.u.]                                              1.82288848426455E+03
 [Angstrom] -> [Bohr] = [a.u.]                              1.88972613288564E+00
 [a.u.] = [Bohr] -> [Angstrom]                              5.29177208590000E-01
 [a.u.] -> [s]                                              2.41888432650478E-17
 [a.u.] -> [fs]                                             2.41888432650478E-02
 [a.u.] -> [J]                                              4.35974393937059E-18
 [a.u.] -> [N]                                              8.23872205491840E-08
 [a.u.] -> [K]                                              3.15774647902944E+05
 [a.u.] -> [kJ/mol]                                         2.62549961709828E+03
 [a.u.] -> [kcal/mol]                                       6.27509468713739E+02
 [a.u.] -> [Pa]                                             2.94210107994716E+13
 [a.u.] -> [bar]                                            2.94210107994716E+08
 [a.u.] -> [atm]                                            2.90362800883016E+08
 [a.u.] -> [eV]                                             2.72113838565563E+01
 [a.u.] -> [Hz]                                             6.57968392072181E+15
 [a.u.] -> [1/cm] (wave numbers)                            2.19474631370540E+05
 [a.u./Bohr**2] -> [1/cm]                                   5.14048714338585E+03
 

 CELL_TOP| Volume [angstrom^3]:                                     27000.000000
 CELL_TOP| Vector a [angstrom    30.000     0.000     0.000   |a| =    30.000000
 CELL_TOP| Vector b [angstrom     0.000    30.000     0.000   |b| =    30.000000
 CELL_TOP| Vector c [angstrom     0.000     0.000    30.000   |c| =    30.000000
 CELL_TOP| Angle (b,c), alpha [degree]:                                90.000000
 CELL_TOP| Angle (a,c), beta  [degree]:                                90.000000
 CELL_TOP| Angle (a,b), gamma [degree]:                                90.000000
 CELL_TOP| Numerically orthorhombic:                                         YES
 CELL_TOP| Periodicity                                                      NONE

 GENERATE|  Preliminary Number of Bonds generated:                             0
 GENERATE|  Achieved consistency in connectivity generation.

 CELL| Volume [angstrom^3]:                                         27000.000000
 CELL| Vector a [angstrom]:      30.000     0.000     0.000   |a| =    30.000000
 CELL| Vector b [angstrom]:       0.000    30.000     0.000   |b| =    30.000000
 CELL| Vector c [angstrom]:       0.000     0.000    30.000   |c| =    30.000000
 CELL| Angle (b,c), alpha [degree]:                                    90.000000
 CELL| Angle (a,c), beta  [degree]:                                    90.000000
 CELL| Angle (a,b), gamma [degree]:                                    90.000000
 CELL| Numerically orthorhombic:                                             YES
 CELL| Periodicity                                                          NONE

 CELL_REF| Volume [angstrom^3]:                                     27000.000000
 CELL_REF| Vector a [angstrom    30.000     0.000     0.000   |a| =    30.000000
 CELL_REF| Vector b [angstrom     0.000    30.000     0.000   |b| =    30.000000
 CELL_REF| Vector c [angstrom     0.000     0.000    30.000   |c| =    30.000000
 CELL_REF| Angle (b,c), alpha [degree]:                                90.000000
 CELL_REF| Angle (a,c), beta  [degree]:                                90.000000
 CELL_REF| Angle (a,b), gamma [degree]:                                90.000000
 CELL_REF| Numerically orthorhombic:                                         YES
 CELL_REF| Periodicity                                                      NONE

 *******************************************************************************
 *******************************************************************************
 **                                                                           **
 **     #####                         ##              ##                      **
 **    ##   ##            ##          ##              ##                      **
 **   ##     ##                       ##            ######                    **
 **   ##     ##  ##   ##  ##   #####  ##  ##   ####   ##    #####    #####    **
 **   ##     ##  ##   ##  ##  ##      ## ##   ##      ##   ##   ##  ##   ##   **
 **   ##  ## ##  ##   ##  ##  ##      ####     ###    ##   ######   ######    **
 **    ##  ###   ##   ##  ##  ##      ## ##      ##   ##   ##       ##        **
 **     #######   #####   ##   #####  ##  ##  ####    ##    #####   ##        **
 **           ##                                                    ##        **
 **                                                                           **
 **                                                ... make the atoms dance   **
 **                                                                           **
 **            Copyright (C) by CP2K developers group (2000-2025)             **
 **                      J. Chem. Phys. 152, 194103 (2020)                    **
 **                                                                           **
 *******************************************************************************

 DFT| Spin restricted Kohn-Sham (RKS) calculation                            RKS
 DFT| Multiplicity                                                             1
 DFT| Number of spin states                                                    1
 DFT| Charge                                                                   0
 DFT| Self-interaction correction (SIC)                                       NO
 DFT| Cutoffs: density                                              1.000000E-10
 DFT|          gradient                                             1.000000E-10
 DFT|          tau                                                  1.000000E-10
 DFT|          cutoff_smoothing_range                               0.000000E+00
 DFT| XC density smoothing                                                  NONE
 DFT| XC derivatives                                                          PW

 FUNCTIONAL| PBE:
 FUNCTIONAL| J.P.Perdew, K.Burke, M.Ernzerhof, Phys. Rev. Letter, vol. 77, n 18,
 FUNCTIONAL|  pp. 3865-3868, (1996)sx=0.750sc=1.000{spin unpolarized}           


 QS| Method:                                                                GAPW
 QS| Density plane wave grid type                        NON-SPHERICAL FULLSPACE
 QS| Number of grid levels:                                                    4
 QS| Density cutoff [a.u.]:                                                250.0
 QS| Multi grid cutoff [a.u.]: 1) grid level                               250.0
 QS|                           2) grid level                                83.3
 QS|                           3) grid level                                27.8
 QS|                           4) grid level                                 9.3
 QS| Grid level progression factor:                                          3.0
 QS| Relative density cutoff [a.u.]:                                        50.0
 QS| Interaction thresholds: eps_pgf_orb:                                1.0E-12
 QS|                         eps_filter_matrix:                          0.0E+00
 QS|                         eps_core_charge:                            1.0E-14
 QS|                         eps_rho_gspace:                             1.0E-12
 QS|                         eps_rho_rspace:                             1.0E-12
 QS|                         eps_gvg_rspace:                             1.0E-06
 QS|                         eps_ppl:                                    1.0E-02
 QS|                         eps_ppnl:                                   1.0E-08
 QS| GAPW|      One center basis from orbital basis primitives
 QS| GAPW|                   eps_fit:                                    1.0E-04
 QS| GAPW|                   eps_iso:                                    1.0E-12
 QS| GAPW|                   eps_svd:                                    1.0E-08
 QS| GAPW|                   eps_cpc:                                    1.0E-12
 QS| GAPW|   atom-r-grid: quadrature:                                     GC_LOG
 QS| GAPW|      atom-s-grid:  max l :                                          8
 QS| GAPW|      max_l_rho0 :                                                   2


 ATOMIC KIND INFORMATION

  1. Atomic kind: C                                     Number of atoms:       2

     Orbital Basis Set                                       QZVPP-MOLOPT-GGA-ae

       Number of orbital shell sets:                                           3
       Number of orbital shells:                                              17
       Number of primitive Cartesian functions:                               17
       Number of Cartesian basis functions:                                   72
       Number of spherical basis functions:                                   57
       Norm type:                                                              2

       Normalised Cartesian orbitals:

                        Set   Shell   Orbital            Exponent    Coefficient

                          1       1    1s                2.478506       1.727996
                                                         0.780870      -0.199624
                                                         0.292233      -0.067737
                                                         0.098416      -0.035850

                          1       2    2s                2.478506       0.315394
                                                         0.780870       0.280386
                                                         0.292233       0.076689
                                                         0.098416       0.022112

                          1       3    3s                2.478506      -0.182490
                                                         0.780870      -0.398499
                                                         0.292233       0.703297
                                                         0.098416      -0.230017

                          1       4    4s                2.478506       0.165589
                                                         0.780870      -0.388414
                                                         0.292233       0.135344
                                                         0.098416       0.109946

                          1       5    2px               2.478506       0.260970
                                                         0.780870       0.517259
                                                         0.292233       0.107296
                                                         0.098416       0.022701
                          1       5    2py               2.478506       0.260970
                                                         0.780870       0.517259
                                                         0.292233       0.107296
                                                         0.098416       0.022701
                          1       5    2pz               2.478506       0.260970
                                                         0.780870       0.517259
                                                         0.292233       0.107296
                                                         0.098416       0.022701

                          1       6    3px               2.478506       2.223364
                                                         0.780870      -0.845189
                                                         0.292233       0.096053
                                                         0.098416       0.070691
                          1       6    3py               2.478506       2.223364
                                                         0.780870      -0.845189
                                                         0.292233       0.096053
                                                         0.098416       0.070691
                          1       6    3pz               2.478506       2.223364
                                                         0.780870      -0.845189
                                                         0.292233       0.096053
                                                         0.098416       0.070691

                          1       7    4px               2.478506      -1.017055
                                                         0.780870       0.605594
                                                         0.292233      -0.564035
                                                         0.098416       0.101323
                          1       7    4py               2.478506      -1.017055
                                                         0.780870       0.605594
                                                         0.292233      -0.564035
                                                         0.098416       0.101323
                          1       7    4pz               2.478506      -1.017055
                                                         0.780870       0.605594
                                                         0.292233      -0.564035
                                                         0.098416       0.101323

                          1       8    3dx2              2.478506       2.448343
                                                         0.780870       0.653790
                                                         0.292233       0.040892
                                                         0.098416       0.003322
                          1       8    3dxy              2.478506       4.240655
                                                         0.780870       1.132397
                                                         0.292233       0.070827
                                                         0.098416       0.005754
                          1       8    3dxz              2.478506       4.240655
                                                         0.780870       1.132397
                                                         0.292233       0.070827
                                                         0.098416       0.005754
                          1       8    3dy2              2.478506       2.448343
                                                         0.780870       0.653790
                                                         0.292233       0.040892
                                                         0.098416       0.003322
                          1       8    3dyz              2.478506       4.240655
                                                         0.780870       1.132397
                                                         0.292233       0.070827
                                                         0.098416       0.005754
                          1       8    3dz2              2.478506       2.448343
                                                         0.780870       0.653790
                                                         0.292233       0.040892
                                                         0.098416       0.003322

                          1       9    4dx2              2.478506      -9.773314
                                                         0.780870       0.819539
                                                         0.292233      -0.068950
                                                         0.098416      -0.005958
                          1       9    4dxy              2.478506     -16.927876
                                                         0.780870       1.419484
                                                         0.292233      -0.119425
                                                         0.098416      -0.010320
                          1       9    4dxz              2.478506     -16.927876
                                                         0.780870       1.419484
                                                         0.292233      -0.119425
                                                         0.098416      -0.010320
                          1       9    4dy2              2.478506      -9.773314
                                                         0.780870       0.819539
                                                         0.292233      -0.068950
                                                         0.098416      -0.005958
                          1       9    4dyz              2.478506     -16.927876
                                                         0.780870       1.419484
                                                         0.292233      -0.119425
                                                         0.098416      -0.010320
                          1       9    4dz2              2.478506      -9.773314
                                                         0.780870       0.819539
                                                         0.292233      -0.068950
                                                         0.098416      -0.005958

                          1      10    5dx2              2.478506      -3.338505
                                                         0.780870      -0.174830
                                                         0.292233       0.240128
                                                         0.098416      -0.010366
                          1      10    5dxy              2.478506      -5.782460
                                                         0.780870      -0.302815
                                                         0.292233       0.415913
                                                         0.098416      -0.017954
                          1      10    5dxz              2.478506      -5.782460
                                                         0.780870      -0.302815
                                                         0.292233       0.415913
                                                         0.098416      -0.017954
                          1      10    5dy2              2.478506      -3.338505
                                                         0.780870      -0.174830
                                                         0.292233       0.240128
                                                         0.098416      -0.010366
                          1      10    5dyz              2.478506      -5.782460
                                                         0.780870      -0.302815
                                                         0.292233       0.415913
                                                         0.098416      -0.017954
                          1      10    5dz2              2.478506      -3.338505
                                                         0.780870      -0.174830
                                                         0.292233       0.240128
                                                         0.098416      -0.010366

                          1      11    4fx3              2.478506       8.481948
                                                         0.780870       0.343839
                                                         0.292233      -0.006792
                                                         0.098416       0.000929
                          1      11    4fx2y             2.478506      18.966213
                                                         0.780870       0.768847
                                                         0.292233      -0.015188
                                                         0.098416       0.002076
                          1      11    4fx2z             2.478506      18.966213
                                                         0.780870       0.768847
                                                         0.292233      -0.015188
                                                         0.098416       0.002076
                          1      11    4fxy2             2.478506      18.966213
                                                         0.780870       0.768847
                                                         0.292233      -0.015188
                                                         0.098416       0.002076
                          1      11    4fxyz             2.478506      32.850445
                                                         0.780870       1.331683
                                                         0.292233      -0.026307
                                                         0.098416       0.003596
                          1      11    4fxz2             2.478506      18.966213
                                                         0.780870       0.768847
                                                         0.292233      -0.015188
                                                         0.098416       0.002076
                          1      11    4fy3              2.478506       8.481948
                                                         0.780870       0.343839
                                                         0.292233      -0.006792
                                                         0.098416       0.000929
                          1      11    4fy2z             2.478506      18.966213
                                                         0.780870       0.768847
                                                         0.292233      -0.015188
                                                         0.098416       0.002076
                          1      11    4fyz2             2.478506      18.966213
                                                         0.780870       0.768847
                                                         0.292233      -0.015188
                                                         0.098416       0.002076
                          1      11    4fz3              2.478506       8.481948
                                                         0.780870       0.343839
                                                         0.292233      -0.006792
                                                         0.098416       0.000929

                          1      12    5fx3              2.478506      -4.423110
                                                         0.780870       0.717072
                                                         0.292233       0.037661
                                                         0.098416      -0.001713
                          1      12    5fx2y             2.478506      -9.890376
                                                         0.780870       1.603421
                                                         0.292233       0.084213
                                                         0.098416      -0.003831
                          1      12    5fx2z             2.478506      -9.890376
                                                         0.780870       1.603421
                                                         0.292233       0.084213
                                                         0.098416      -0.003831
                          1      12    5fxy2             2.478506      -9.890376
                                                         0.780870       1.603421
                                                         0.292233       0.084213
                                                         0.098416      -0.003831
                          1      12    5fxyz             2.478506     -17.130633
                                                         0.780870       2.777207
                                                         0.292233       0.145862
                                                         0.098416      -0.006636
                          1      12    5fxz2             2.478506      -9.890376
                                                         0.780870       1.603421
                                                         0.292233       0.084213
                                                         0.098416      -0.003831
                          1      12    5fy3              2.478506      -4.423110
                                                         0.780870       0.717072
                                                         0.292233       0.037661
                                                         0.098416      -0.001713
                          1      12    5fy2z             2.478506      -9.890376
                                                         0.780870       1.603421
                                                         0.292233       0.084213
                                                         0.098416      -0.003831
                          1      12    5fyz2             2.478506      -9.890376
                                                         0.780870       1.603421
                                                         0.292233       0.084213
                                                         0.098416      -0.003831
                          1      12    5fz3              2.478506      -4.423110
                                                         0.780870       0.717072
                                                         0.292233       0.037661
                                                         0.098416      -0.001713

                          1      13    5gx4              2.478506       5.558350
                                                         0.780870       0.445812
                                                         0.292233      -0.003241
                                                         0.098416      -0.000135
                          1      13    5gx3y             2.478506      14.706012
                                                         0.780870       1.179508
                                                         0.292233      -0.008575
                                                         0.098416      -0.000357
                          1      13    5gx3z             2.478506      14.706012
                                                         0.780870       1.179508
                                                         0.292233      -0.008575
                                                         0.098416      -0.000357
                          1      13    5gx2y2            2.478506      18.985380
                                                         0.780870       1.522738
                                                         0.292233      -0.011071
                                                         0.098416      -0.000460
                          1      13    5gx2yz            2.478506      32.883644
                                                         0.780870       2.637460
                                                         0.292233      -0.019175
                                                         0.098416      -0.000797
                          1      13    5gx2z2            2.478506      18.985380
                                                         0.780870       1.522738
                                                         0.292233      -0.011071
                                                         0.098416      -0.000460
                          1      13    5gxy3             2.478506      14.706012
                                                         0.780870       1.179508
                                                         0.292233      -0.008575
                                                         0.098416      -0.000357
                          1      13    5gxy2z            2.478506      32.883644
                                                         0.780870       2.637460
                                                         0.292233      -0.019175
                                                         0.098416      -0.000797
                          1      13    5gxyz2            2.478506      32.883644
                                                         0.780870       2.637460
                                                         0.292233      -0.019175
                                                         0.098416      -0.000797
                          1      13    5gxz3             2.478506      14.706012
                                                         0.780870       1.179508
                                                         0.292233      -0.008575
                                                         0.098416      -0.000357
                          1      13    5gy4              2.478506       5.558350
                                                         0.780870       0.445812
                                                         0.292233      -0.003241
                                                         0.098416      -0.000135
                          1      13    5gy3z             2.478506      14.706012
                                                         0.780870       1.179508
                                                         0.292233      -0.008575
                                                         0.098416      -0.000357
                          1      13    5gy2z2            2.478506      18.985380
                                                         0.780870       1.522738
                                                         0.292233      -0.011071
                                                         0.098416      -0.000460
                          1      13    5gyz3             2.478506      14.706012
                                                         0.780870       1.179508
                                                         0.292233      -0.008575
                                                         0.098416      -0.000357
                          1      13    5gz4              2.478506       5.558350
                                                         0.780870       0.445812
                                                         0.292233      -0.003241
                                                         0.098416      -0.000135

                          2       1    1s              105.226643       2.019983
                                                        24.915833       4.884210
                                                         7.802292       0.922134
                                                         3.210992       0.077285
                                                         1.569670       0.127026

                          2       2    2s              105.226643      -2.503665
                                                        24.915833      -1.789628
                                                         7.802292       1.285480
                                                         3.210992       1.243151
                                                         1.569670       0.060045

                          2       3    2px             105.226643       2.754378
                                                        24.915833       3.821590
                                                         7.802292       3.687249
                                                         3.210992       1.952607
                                                         1.569670       1.401337
                          2       3    2py             105.226643       2.754378
                                                        24.915833       3.821590
                                                         7.802292       3.687249
                                                         3.210992       1.952607
                                                         1.569670       1.401337
                          2       3    2pz             105.226643       2.754378
                                                        24.915833       3.821590
                                                         7.802292       3.687249
                                                         3.210992       1.952607
                                                         1.569670       1.401337

                          3       1    1s            67025.107019       0.301273
                                                     10039.963354       0.840959
                                                      2284.844403       1.414087
                                                       647.155825       1.978250
                                                       211.194000       3.614759
                                                        76.386303       5.885133
                                                        29.429391       1.640818
                                                        12.033162       2.449859

     RI Auxiliary Basis Set                                    aug-cc-pV5Z-RIFIT

       Number of orbital shell sets:                                          46
       Number of orbital shells:                                              46
       Number of primitive Cartesian functions:                               46
       Number of Cartesian basis functions:                                  371
       Number of spherical basis functions:                                  242
       Norm type:                                                              2

       Normalised Cartesian orbitals:

                        Set   Shell   Orbital            Exponent    Coefficient

                          1       1    1s                0.062545       0.089136

                          2       1    1dx2              0.084789       0.021928
                          2       1    1dxy              0.084789       0.037981
                          2       1    1dxz              0.084789       0.037981
                          2       1    1dy2              0.084789       0.021928
                          2       1    1dyz              0.084789       0.037981
                          2       1    1dz2              0.084789       0.021928

                          3       1    1px               0.090000       0.070266
                          3       1    1py               0.090000       0.070266
                          3       1    1pz               0.090000       0.070266

                          4       1    1s                0.118498       0.143944

                          5       1    1fx3              0.135351       0.016358
                          5       1    1fx2y             0.135351       0.036579
                          5       1    1fx2z             0.135351       0.036579
                          5       1    1fxy2             0.135351       0.036579
                          5       1    1fxyz             0.135351       0.063356
                          5       1    1fxz2             0.135351       0.036579
                          5       1    1fy3              0.135351       0.016358
                          5       1    1fy2z             0.135351       0.036579
                          5       1    1fyz2             0.135351       0.036579
                          5       1    1fz3              0.135351       0.016358

                          6       1    1dx2              0.211749       0.108792
                          6       1    1dxy              0.211749       0.188433
                          6       1    1dxz              0.211749       0.188433
                          6       1    1dy2              0.211749       0.108792
                          6       1    1dyz              0.211749       0.188433
                          6       1    1dz2              0.211749       0.108792

                          7       1    1px               0.223793       0.219406
                          7       1    1py               0.223793       0.219406
                          7       1    1pz               0.223793       0.219406

                          8       1    1gx4              0.241717       0.022415
                          8       1    1gx3y             0.241717       0.059303
                          8       1    1gx3z             0.241717       0.059303
                          8       1    1gx2y2            0.241717       0.076560
                          8       1    1gx2yz            0.241717       0.132606
                          8       1    1gx2z2            0.241717       0.076560
                          8       1    1gxy3             0.241717       0.059303
                          8       1    1gxy2z            0.241717       0.132606
                          8       1    1gxyz2            0.241717       0.132606
                          8       1    1gxz3             0.241717       0.059303
                          8       1    1gy4              0.241717       0.022415
                          8       1    1gy3z             0.241717       0.059303
                          8       1    1gy2z2            0.241717       0.076560
                          8       1    1gyz3             0.241717       0.059303
                          8       1    1gz4              0.241717       0.022415

                          9       1    1s                0.257433       0.257578

                         10       1    1fx3              0.334627       0.125377
                         10       1    1fx2y             0.334627       0.280351
                         10       1    1fx2z             0.334627       0.280351
                         10       1    1fxy2             0.334627       0.280351
                         10       1    1fxyz             0.334627       0.485582
                         10       1    1fxz2             0.334627       0.280351
                         10       1    1fy3              0.334627       0.125377
                         10       1    1fy2z             0.334627       0.280351
                         10       1    1fyz2             0.334627       0.280351
                         10       1    1fz3              0.334627       0.125377

                         11       1    1px               0.353612       0.388686
                         11       1    1py               0.353612       0.388686
                         11       1    1pz               0.353612       0.388686

                         12       1    1dx2              0.413013       0.350224
                         12       1    1dxy              0.413013       0.606606
                         12       1    1dxz              0.413013       0.606606
                         12       1    1dy2              0.413013       0.350224
                         12       1    1dyz              0.413013       0.606606
                         12       1    1dz2              0.413013       0.350224

                         13       1    1hx5              0.475436       0.066205
                         13       1    1hx4y             0.475436       0.198616
                         13       1    1hx4z             0.475436       0.198616
                         13       1    1hx3y2            0.475436       0.303391
                         13       1    1hx3yz            0.475436       0.525489
                         13       1    1hx3z2            0.475436       0.303391
                         13       1    1hx2y3            0.475436       0.303391
                         13       1    1hx2y2z           0.475436       0.678403
                         13       1    1hx2yz2           0.475436       0.678403
                         13       1    1hx2z3            0.475436       0.303391
                         13       1    1hxy4             0.475436       0.198616
                         13       1    1hxy3z            0.475436       0.525489
                         13       1    1hxy2z2           0.475436       0.678403
                         13       1    1hxyz3            0.475436       0.525489
                         13       1    1hxz4             0.475436       0.198616
                         13       1    1hy5              0.475436       0.066205
                         13       1    1hy4z             0.475436       0.198616
                         13       1    1hy3z2            0.475436       0.303391
                         13       1    1hy2z3            0.475436       0.303391
                         13       1    1hyz4             0.475436       0.198616
                         13       1    1hz5              0.475436       0.066205

                         14       1    1s                0.555806       0.458778

                         15       1    1gx4              0.593235       0.264734
                         15       1    1gx3y             0.593235       0.700419
                         15       1    1gx3z             0.593235       0.700419
                         15       1    1gx2y2            0.593235       0.904237
                         15       1    1gx2yz            0.593235       1.566185
                         15       1    1gx2z2            0.593235       0.904237
                         15       1    1gxy3             0.593235       0.700419
                         15       1    1gxy2z            0.593235       1.566185
                         15       1    1gxyz2            0.593235       1.566185
                         15       1    1gxz3             0.593235       0.700419
                         15       1    1gy4              0.593235       0.264734
                         15       1    1gy3z             0.593235       0.700419
                         15       1    1gy2z2            0.593235       0.904237
                         15       1    1gyz3             0.593235       0.700419
                         15       1    1gz4              0.593235       0.264734

                         16       1    1fx3              0.603184       0.472027
                         16       1    1fx2y             0.603184       1.055484
                         16       1    1fx2z             0.603184       1.055484
                         16       1    1fxy2             0.603184       1.055484
                         16       1    1fxyz             0.603184       1.828151
                         16       1    1fxz2             0.603184       1.055484
                         16       1    1fy3              0.603184       0.472027
                         16       1    1fy2z             0.603184       1.055484
                         16       1    1fyz2             0.603184       1.055484
                         16       1    1fz3              0.603184       0.472027

                         17       1    1px               0.705145       0.921060
                         17       1    1py               0.705145       0.921060
                         17       1    1pz               0.705145       0.921060

                         18       1    1dx2              0.759964       1.018116
                         18       1    1dxy              0.759964       1.763429
                         18       1    1dxz              0.759964       1.763429
                         18       1    1dy2              0.759964       1.018116
                         18       1    1dyz              0.759964       1.763429
                         18       1    1dz2              0.759964       1.018116

                         19       1    1ix6              0.833067       0.225542
                         19       1    1ix5y             0.833067       0.748038
                         19       1    1ix5z             0.833067       0.748038
                         19       1    1ix4y2            0.833067       1.295641
                         19       1    1ix4yz            0.833067       2.244115
                         19       1    1ix4z2            0.833067       1.295641
                         19       1    1ix3y3            0.833067       1.533023
                         19       1    1ix3y2z           0.833067       3.427943
                         19       1    1ix3yz2           0.833067       3.427943
                         19       1    1ix3z3            0.833067       1.533023
                         19       1    1ix2y4            0.833067       1.295641
                         19       1    1ix2y3z           0.833067       3.427943
                         19       1    1ix2y2z2          0.833067       4.425455
                         19       1    1ix2yz3           0.833067       3.427943
                         19       1    1ix2z4            0.833067       1.295641
                         19       1    1ixy5             0.833067       0.748038
                         19       1    1ixy4z            0.833067       2.244115
                         19       1    1ixy3z2           0.833067       3.427943
                         19       1    1ixy2z3           0.833067       3.427943
                         19       1    1ixyz4            0.833067       2.244115
                         19       1    1ixz5             0.833067       0.748038
                         19       1    1iy6              0.833067       0.225542
                         19       1    1iy5z             0.833067       0.748038
                         19       1    1iy4z2            0.833067       1.295641
                         19       1    1iy3z3            0.833067       1.533023
                         19       1    1iy2z4            0.833067       1.295641
                         19       1    1iyz5             0.833067       0.748038
                         19       1    1iz6              0.833067       0.225542

                         20       1    1hx5              0.860125       0.454642
                         20       1    1hx4y             0.860125       1.363925
                         20       1    1hx4z             0.860125       1.363925
                         20       1    1hx3y2            0.860125       2.083430
                         20       1    1hx3yz            0.860125       3.608607
                         20       1    1hx3z2            0.860125       2.083430
                         20       1    1hx2y3            0.860125       2.083430
                         20       1    1hx2y2z           0.860125       4.658691
                         20       1    1hx2yz2           0.860125       4.658691
                         20       1    1hx2z3            0.860125       2.083430
                         20       1    1hxy4             0.860125       1.363925
                         20       1    1hxy3z            0.860125       3.608607
                         20       1    1hxy2z2           0.860125       4.658691
                         20       1    1hxyz3            0.860125       3.608607
                         20       1    1hxz4             0.860125       1.363925
                         20       1    1hy5              0.860125       0.454642
                         20       1    1hy4z             0.860125       1.363925
                         20       1    1hy3z2            0.860125       2.083430
                         20       1    1hy2z3            0.860125       2.083430
                         20       1    1hyz4             0.860125       1.363925
                         20       1    1hz5              0.860125       0.454642

                         21       1    1s                0.944763       0.682971

                         22       1    1gx4              1.023150       1.185137
                         22       1    1gx3y             1.023150       3.135578
                         22       1    1gx3z             1.023150       3.135578
                         22       1    1gx2y2            1.023150       4.048013
                         22       1    1gx2yz            1.023150       7.011365
                         22       1    1gx2z2            1.023150       4.048013
                         22       1    1gxy3             1.023150       3.135578
                         22       1    1gxy2z            1.023150       7.011365
                         22       1    1gxyz2            1.023150       7.011365
                         22       1    1gxz3             1.023150       3.135578
                         22       1    1gy4              1.023150       1.185137
                         22       1    1gy3z             1.023150       3.135578
                         22       1    1gy2z2            1.023150       4.048013
                         22       1    1gyz3             1.023150       3.135578
                         22       1    1gz4              1.023150       1.185137

                         23       1    1fx3              1.114180       1.877604
                         23       1    1fx2y             1.114180       4.198450
                         23       1    1fx2z             1.114180       4.198450
                         23       1    1fxy2             1.114180       4.198450
                         23       1    1fxyz             1.114180       7.271929
                         23       1    1fxz2             1.114180       4.198450
                         23       1    1fy3              1.114180       1.877604
                         23       1    1fy2z             1.114180       4.198450
                         23       1    1fyz2             1.114180       4.198450
                         23       1    1fz3              1.114180       1.877604

                         24       1    1px               1.420590       2.210681
                         24       1    1py               1.420590       2.210681
                         24       1    1pz               1.420590       2.210681

                         25       1    1hx5              1.508080       2.819833
                         25       1    1hx4y             1.508080       8.459499
                         25       1    1hx4z             1.508080       8.459499
                         25       1    1hx3y2            1.508080      12.922099
                         25       1    1hx3yz            1.508080      22.381731
                         25       1    1hx3z2            1.508080      12.922099
                         25       1    1hx2y3            1.508080      12.922099
                         25       1    1hx2y2z           1.508080      28.894691
                         25       1    1hx2yz2           1.508080      28.894691
                         25       1    1hx2z3            1.508080      12.922099
                         25       1    1hxy4             1.508080       8.459499
                         25       1    1hxy3z            1.508080      22.381731
                         25       1    1hxy2z2           1.508080      28.894691
                         25       1    1hxyz3            1.508080      22.381731
                         25       1    1hxz4             1.508080       8.459499
                         25       1    1hy5              1.508080       2.819833
                         25       1    1hy4z             1.508080       8.459499
                         25       1    1hy3z2            1.508080      12.922099
                         25       1    1hy2z3            1.508080      12.922099
                         25       1    1hyz4             1.508080       8.459499
                         25       1    1hz5              1.508080       2.819833

                         26       1    1dx2              1.639980       3.911803
                         26       1    1dxy              1.639980       6.775441
                         26       1    1dxz              1.639980       6.775441
                         26       1    1dy2              1.639980       3.911803
                         26       1    1dyz              1.639980       6.775441
                         26       1    1dz2              1.639980       3.911803

                         27       1    1s                1.697980       1.060131

                         28       1    1ix6              1.702580       3.291024
                         28       1    1ix5y             1.702580      10.915092
                         28       1    1ix5z             1.702580      10.915092
                         28       1    1ix4y2            1.702580      18.905493
                         28       1    1ix4yz            1.702580      32.745275
                         28       1    1ix4z2            1.702580      18.905493
                         28       1    1ix3y3            1.702580      22.369282
                         28       1    1ix3y2z           1.702580      50.019234
                         28       1    1ix3yz2           1.702580      50.019234
                         28       1    1ix3z3            1.702580      22.369282
                         28       1    1ix2y4            1.702580      18.905493
                         28       1    1ix2y3z           1.702580      50.019234
                         28       1    1ix2y2z2          1.702580      64.574554
                         28       1    1ix2yz3           1.702580      50.019234
                         28       1    1ix2z4            1.702580      18.905493
                         28       1    1ixy5             1.702580      10.915092
                         28       1    1ixy4z            1.702580      32.745275
                         28       1    1ixy3z2           1.702580      50.019234
                         28       1    1ixy2z3           1.702580      50.019234
                         28       1    1ixyz4            1.702580      32.745275
                         28       1    1ixz5             1.702580      10.915092
                         28       1    1iy6              1.702580       3.291024
                         28       1    1iy5z             1.702580      10.915092
                         28       1    1iy4z2            1.702580      18.905493
                         28       1    1iy3z3            1.702580      22.369282
                         28       1    1iy2z4            1.702580      18.905493
                         28       1    1iyz5             1.702580      10.915092
                         28       1    1iz6              1.702580       3.291024

                         29       1    1fx3              2.054360       7.438351
                         29       1    1fx2y             2.054360      16.632659
                         29       1    1fx2z             2.054360      16.632659
                         29       1    1fxy2             2.054360      16.632659
                         29       1    1fxyz             2.054360      28.808611
                         29       1    1fxz2             2.054360      16.632659
                         29       1    1fy3              2.054360       7.438351
                         29       1    1fy2z             2.054360      16.632659
                         29       1    1fyz2             2.054360      16.632659
                         29       1    1fz3              2.054360       7.438351

                         30       1    1gx4              2.155990       9.203732
                         30       1    1gx3y             2.155990      24.350786
                         30       1    1gx3z             2.155990      24.350786
                         30       1    1gx2y2            2.155990      31.436730
                         30       1    1gx2yz            2.155990      54.450013
                         30       1    1gx2z2            2.155990      31.436730
                         30       1    1gxy3             2.155990      24.350786
                         30       1    1gxy2z            2.155990      54.450013
                         30       1    1gxyz2            2.155990      54.450013
                         30       1    1gxz3             2.155990      24.350786
                         30       1    1gy4              2.155990       9.203732
                         30       1    1gy3z             2.155990      24.350786
                         30       1    1gy2z2            2.155990      31.436730
                         30       1    1gyz3             2.155990      24.350786
                         30       1    1gz4              2.155990       9.203732

                         31       1    1px               2.540790       4.572472
                         31       1    1py               2.540790       4.572472
                         31       1    1pz               2.540790       4.572472

                         32       1    1hx5              2.702190      18.768121
                         32       1    1hx4y             2.702190      56.304362
                         32       1    1hx4z             2.702190      56.304362
                         32       1    1hx3y2            2.702190      86.006333
                         32       1    1hx3yz            2.702190     148.967339
                         32       1    1hx3z2            2.702190      86.006333
                         32       1    1hx2y3            2.702190      86.006333
                         32       1    1hx2y2z           2.702190     192.316007
                         32       1    1hx2yz2           2.702190     192.316007
                         32       1    1hx2z3            2.702190      86.006333
                         32       1    1hxy4             2.702190      56.304362
                         32       1    1hxy3z            2.702190     148.967339
                         32       1    1hxy2z2           2.702190     192.316007
                         32       1    1hxyz3            2.702190     148.967339
                         32       1    1hxz4             2.702190      56.304362
                         32       1    1hy5              2.702190      18.768121
                         32       1    1hy4z             2.702190      56.304362
                         32       1    1hy3z2            2.702190      86.006333
                         32       1    1hy2z3            2.702190      86.006333
                         32       1    1hyz4             2.702190      56.304362
                         32       1    1hz5              2.702190      18.768121

                         33       1    1s                2.838270       1.558477

                         34       1    1dx2              3.000150      11.256663
                         34       1    1dxy              3.000150      19.497112
                         34       1    1dxz              3.000150      19.497112
                         34       1    1dy2              3.000150      11.256663
                         34       1    1dyz              3.000150      19.497112
                         34       1    1dz2              3.000150      11.256663

                         35       1    1fx3              3.116540      18.998444
                         35       1    1fx2y             3.116540      42.481813
                         35       1    1fx2z             3.116540      42.481813
                         35       1    1fxy2             3.116540      42.481813
                         35       1    1fxyz             3.116540      73.580658
                         35       1    1fxz2             3.116540      42.481813
                         35       1    1fy3              3.116540      18.998444
                         35       1    1fy2z             3.116540      42.481813
                         35       1    1fyz2             3.116540      42.481813
                         35       1    1fz3              3.116540      18.998444

                         36       1    1gx4              4.244100      59.271490
                         36       1    1gx3y             4.244100     156.817624
                         36       1    1gx3z             4.244100     156.817624
                         36       1    1gx2y2            4.244100     202.450681
                         36       1    1gx2yz            4.244100     350.654866
                         36       1    1gx2z2            4.244100     202.450681
                         36       1    1gxy3             4.244100     156.817624
                         36       1    1gxy2z            4.244100     350.654866
                         36       1    1gxyz2            4.244100     350.654866
                         36       1    1gxz3             4.244100     156.817624
                         36       1    1gy4              4.244100      59.271490
                         36       1    1gy3z             4.244100     156.817624
                         36       1    1gy2z2            4.244100     202.450681
                         36       1    1gyz3             4.244100     156.817624
                         36       1    1gz4              4.244100      59.271490

                         37       1    1dx2              4.999910      27.516506
                         37       1    1dxy              4.999910      47.659986
                         37       1    1dxz              4.999910      47.659986
                         37       1    1dy2              4.999910      27.516506
                         37       1    1dyz              4.999910      47.659986
                         37       1    1dz2              4.999910      27.516506

                         38       1    1px               5.053190      10.799338
                         38       1    1py               5.053190      10.799338
                         38       1    1pz               5.053190      10.799338

                         39       1    1s                6.151790       2.783949

                         40       1    1fx3              7.559750     139.507056
                         40       1    1fx2y             7.559750     311.947262
                         40       1    1fx2z             7.559750     311.947262
                         40       1    1fxy2             7.559750     311.947262
                         40       1    1fxyz             7.559750     540.308506
                         40       1    1fxz2             7.559750     311.947262
                         40       1    1fy3              7.559750     139.507056
                         40       1    1fy2z             7.559750     311.947262
                         40       1    1fyz2             7.559750     311.947262
                         40       1    1fz3              7.559750     139.507056

                         41       1    1dx2             12.844800     143.443975
                         41       1    1dxy             12.844800     248.452253
                         41       1    1dxz             12.844800     248.452253
                         41       1    1dy2             12.844800     143.443975
                         41       1    1dyz             12.844800     248.452253
                         41       1    1dz2             12.844800     143.443975

                         42       1    1s               13.932000       5.139492

                         43       1    1px              14.097200      38.936433
                         43       1    1py              14.097200      38.936433
                         43       1    1pz              14.097200      38.936433

                         44       1    1px              51.517500     196.735876
                         44       1    1py              51.517500     196.735876
                         44       1    1pz              51.517500     196.735876

                         45       1    1s               53.400400      14.078892

                         46       1    1s              247.064000      44.413724

       Atomic covalent radius [Angstrom]:                                  0.770

       Atomic van der Waals radius [Angstrom]:                             1.700

     The atoms of this atomic kind are PAW atoms (GAPW):
       Hard Gaussian function radius:                                      1.512
       Rho0 radius:                                                        1.512
       Maximum GTO radius used for PAW projector construction:            24.566

     GAPW Soft Basis Set                                QZVPP-MOLOPT-GGA-ae_soft

       Number of orbital shell sets:                                           3
       Number of orbital shells:                                              17
       Number of primitive Cartesian functions:                                6
       Number of Cartesian basis functions:                                   72
       Number of spherical basis functions:                                   57
       Norm type:                                                              2

       Normalised Cartesian orbitals:

                        Set   Shell   Orbital            Exponent    Coefficient

                          1       1    1s                2.478506       1.727996
                                                         0.780870      -0.199624
                                                         0.292233      -0.067737
                                                         0.098416      -0.035850

                          1       2    2s                2.478506       0.315394
                                                         0.780870       0.280386
                                                         0.292233       0.076689
                                                         0.098416       0.022112

                          1       3    3s                2.478506      -0.182490
                                                         0.780870      -0.398499
                                                         0.292233       0.703297
                                                         0.098416      -0.230017

                          1       4    4s                2.478506       0.165589
                                                         0.780870      -0.388414
                                                         0.292233       0.135344
                                                         0.098416       0.109946

                          1       5    2px               2.478506       0.260970
                                                         0.780870       0.517259
                                                         0.292233       0.107296
                                                         0.098416       0.022701
                          1       5    2py               2.478506       0.260970
                                                         0.780870       0.517259
                                                         0.292233       0.107296
                                                         0.098416       0.022701
                          1       5    2pz               2.478506       0.260970
                                                         0.780870       0.517259
                                                         0.292233       0.107296
                                                         0.098416       0.022701

                          1       6    3px               2.478506       2.223364
                                                         0.780870      -0.845189
                                                         0.292233       0.096053
                                                         0.098416       0.070691
                          1       6    3py               2.478506       2.223364
                                                         0.780870      -0.845189
                                                         0.292233       0.096053
                                                         0.098416       0.070691
                          1       6    3pz               2.478506       2.223364
                                                         0.780870      -0.845189
                                                         0.292233       0.096053
                                                         0.098416       0.070691

                          1       7    4px               2.478506      -1.017055
                                                         0.780870       0.605594
                                                         0.292233      -0.564035
                                                         0.098416       0.101323
                          1       7    4py               2.478506      -1.017055
                                                         0.780870       0.605594
                                                         0.292233      -0.564035
                                                         0.098416       0.101323
                          1       7    4pz               2.478506      -1.017055
                                                         0.780870       0.605594
                                                         0.292233      -0.564035
                                                         0.098416       0.101323

                          1       8    3dx2              2.478506       2.448343
                                                         0.780870       0.653790
                                                         0.292233       0.040892
                                                         0.098416       0.003322
                          1       8    3dxy              2.478506       4.240655
                                                         0.780870       1.132397
                                                         0.292233       0.070827
                                                         0.098416       0.005754
                          1       8    3dxz              2.478506       4.240655
                                                         0.780870       1.132397
                                                         0.292233       0.070827
                                                         0.098416       0.005754
                          1       8    3dy2              2.478506       2.448343
                                                         0.780870       0.653790
                                                         0.292233       0.040892
                                                         0.098416       0.003322
                          1       8    3dyz              2.478506       4.240655
                                                         0.780870       1.132397
                                                         0.292233       0.070827
                                                         0.098416       0.005754
                          1       8    3dz2              2.478506       2.448343
                                                         0.780870       0.653790
                                                         0.292233       0.040892
                                                         0.098416       0.003322

                          1       9    4dx2              2.478506      -9.773314
                                                         0.780870       0.819539
                                                         0.292233      -0.068950
                                                         0.098416      -0.005958
                          1       9    4dxy              2.478506     -16.927876
                                                         0.780870       1.419484
                                                         0.292233      -0.119425
                                                         0.098416      -0.010320
                          1       9    4dxz              2.478506     -16.927876
                                                         0.780870       1.419484
                                                         0.292233      -0.119425
                                                         0.098416      -0.010320
                          1       9    4dy2              2.478506      -9.773314
                                                         0.780870       0.819539
                                                         0.292233      -0.068950
                                                         0.098416      -0.005958
                          1       9    4dyz              2.478506     -16.927876
                                                         0.780870       1.419484
                                                         0.292233      -0.119425
                                                         0.098416      -0.010320
                          1       9    4dz2              2.478506      -9.773314
[...]
 qs_energies                          1  2.0    0.001    0.001  717.275  717.275
 scf_env_do_scf                       1  3.0    0.000    0.001  450.917  450.917
 qs_ks_update_qs_env                200  5.0    0.001    0.001  392.097  392.171
 rebuild_ks_matrix                  199  6.0    0.001    0.001  392.062  392.138
 qs_ks_build_kohn_sham_matrix       199  7.0    0.028    0.033  392.061  392.137
 scf_env_do_scf_inner_loop          199  4.0    0.004    0.012  286.118  286.119
 qs_energies_properties               1  3.0    0.000    0.000  265.133  265.133
 tddfpt                               1  4.0    0.000    0.001  265.133  265.133
 tddfpt_energies                      1  5.0    0.000    0.001  265.066  265.066
 tddfpt_davidson_solver               1  6.0    0.001    0.003  262.992  262.992
 tddfpt_compute_Aop_evects            7  7.0    0.000    0.000  261.538  261.538
 fhxc_kernel                          7  8.0    0.007    0.008  228.315  228.315
 integrate_four_center              479  9.6   24.494   35.692  214.515  214.740
 fft_wrap_pw1pw2                   5607 10.7    0.112    0.143  180.458  184.671
 hfx_ks_matrix                      199  8.0    0.008    0.010  183.970  184.092
 fft_wrap_pw1pw2_250               3963 11.9    6.909    8.073  174.155  178.542
 pw_poisson_solve                   339  8.8    3.773    5.281  170.317  170.981
 init_scf_loop                        1  4.0    0.000    0.000  164.796  164.797
 fft3d_ps                          5607 12.7   61.078   77.169  150.980  156.426
 integrate_four_center_main         479 10.6    3.003   41.879   23.853  112.151
 integrate_four_center_bin        65999 11.6   20.850  109.818   20.850  109.818
 mp_sync                           2650 11.5   80.589   99.528   80.589   99.528
 ps_wavelet_solve                   339  9.8   75.637   87.240   96.972   98.291
 tddfpt_apply_coulomb               140  9.0    0.003    0.004   93.492   94.164
 qs_rho_update_rho_low              341  6.6    0.004    0.005   91.278   91.303
 calculate_rho_elec                 341  7.6    1.658    1.968   88.882   88.885
 mp_alltoall_z22v                  5607 14.7   77.713   83.494   77.713   83.494
 calc_screening_functions             1 10.0   72.768   77.902   73.627   78.755
 mp_alltoall_d54                    339 10.8   12.552   74.543   12.552   74.543
 xc_pw_derive                      1641 11.0    0.019    0.024   73.604   74.139
 prepare_gapw_den                   340  8.4    0.008    0.009   63.098   63.520
 density_rs2pw                      341  8.6    0.021    0.025   58.550   60.045
 x_to_yz                           2528 13.8    7.360    8.540   51.801   53.803
 tddfpt_apply_xc_analytic           140  9.0    0.199    0.270   47.068   47.730
 qs_vxc_create                      199  8.0    0.002    0.003   44.330   44.331
 yz_to_x                           2531 13.6    4.199    5.031   37.429   40.766
 xc_pw_divergence                   207 10.7    0.009    0.011   38.117   38.682
 transfer_rs2pw                    1705  9.8    0.046    0.070   36.906   37.896
 integrate_v_rspace                 207  9.0    0.005    0.007   32.836   32.909
 tddfpt_apply_hfx                     7  8.0    0.003    0.003   32.603   32.603
 calculate_rho_atom                1020  9.4    5.633   31.550    5.633   31.550
 xc_rho_set_and_dset_create         200 10.0    0.485    0.615   28.299   31.358
 tddft_hfx_matrix                   280  9.0    0.008    0.010   30.567   30.705
 grid_collocate_task_list           341  8.6   27.245   30.323   27.245   30.323
 transfer_pw2rs                    1168 10.7    0.019    0.024   29.358   30.024
 put_rho0_on_grid                   340  9.4    1.686    2.051   29.297   29.721
 potential_pw2rs                    207 10.0    0.072    0.081   29.036   29.122
 mp_alltoall_d11v                 14420 11.9   19.776   28.166   19.776   28.166
 mp_waitany                       54406 12.1   24.924   28.160   24.924   28.160
 xc_calc_2nd_deriv_analytical       700 10.1    1.668    1.761   27.862   27.933
 mp_sum_dv                        27482 10.2   26.450   27.455   26.450   27.455
 xc_vxc_pw_create                    67  9.0    0.435    0.527   23.138   23.138
 transfer_rs2pw_250                 682 11.0    9.260   10.113   21.789   23.007
 xc_exc_calc                        132  9.0    0.640    0.760   21.190   21.190
 transfer_pw2rs_250                 547 11.3    6.567    7.194   18.495   19.150
 gaVxcgb_GC                         414  9.7    0.599   18.762    0.599   18.762
 integrate_vhg0_rspace              339  8.8    1.046    1.167   18.071   18.610
 mp_sum_d                         10354  9.0   15.972   18.129   15.972   18.129
 calculate_xc_2nd_deriv_atom        140  9.0    0.082    1.979    0.514   14.988
 mp_alltoall_d45                    340 10.8    8.013   14.410    8.013   14.410
 sum_up_and_integrate                67  8.0    0.001    0.001   10.751   10.786
 mp_waitall_1                    480714 13.5    8.143   10.280    8.143   10.280
 pw_scatter_p                      2735 12.8    9.629    9.940    9.629    9.940
 pw_gather_p                       2872 12.5    7.944    8.818    7.944    8.818
 pw_derive                         2658 11.5    7.868    8.588    7.868    8.588
 cp2k_distribution_to_z_slices      339  9.8    3.253    3.499    7.334    7.784
 calculate_vxc_atom                 199  8.0    0.129    1.458    7.738    7.738
 transfer_rs2pw_30                  341 10.6    3.214    3.378    7.480    7.606
 mp_sum_l                         15953 10.7    5.651    7.419    5.651    7.419
 integrate_four_center_load         479 10.6    0.001    0.002    5.126    6.923
 hfx_load_balance                     1 11.0    0.000    0.000    5.125    6.922
 hfx_load_balance_range               1 12.0    0.000    0.000    5.117    6.915
 transfer_rs2pw_90                  341 10.6    1.468    1.597    6.049    6.827
 rs_grid_zero                      1434 11.4    6.067    6.392    6.067    6.392
 mp_sum_dm                         6157  9.0    5.338    6.100    5.338    6.100
 transfer_pw2rs_30                  207 12.0    3.507    3.992    5.809    6.091
 fft_wrap_pw1pw2_90                 548 11.2    0.187    0.304    4.779    6.037
 dbcsr_multiply_generic            3568  9.9    0.146    0.151    5.674    5.747
 pw_copy                           4150 10.8    5.220    5.614    5.220    5.614
 mp_sendrecv_dv                   64790 11.6    5.213    5.407    5.213    5.407
 pw_poisson_set                     340  9.8    0.012    0.014    5.247    5.369
 integrate_four_center_getP         479 10.6    0.110    0.120    4.402    5.283
 qs_scf_new_mos                     199  5.0    0.001    0.001    5.187    5.210
 qs_scf_loop_do_ot                  199  6.0    0.001    0.001    5.186    5.209
 ot_scf_mini                        199  7.0    0.003    0.003    4.866    4.889
 transfer_pw2rs_90                  207 12.0    0.930    1.091    4.004    4.430
 cp_dbcsr_sm_fm_multiply            889  8.5    0.018    0.018    4.141    4.281
 xc_functional_eval                1556 10.9    0.002    0.006    1.065    3.985
 pbe_lda_eval                      1556 11.9    1.063    3.979    1.063    3.979
 rs_gather_matrices                 207 10.0    0.004    0.027    3.472    3.826
 grid_integrate_task_list           207 10.0    0.322    3.679    0.322    3.679
 Vh_1c_gg_integrals                 339  8.8    0.129    2.970    3.420    3.621
 mp_isendrecv_dv                 130340 12.0    1.612    3.502    1.612    3.502
 pw_integral_ab_c1d_c1d_gs          339  9.8    2.480    2.497    2.891    3.284
 multiply_cannon                   3568 10.9    0.326    0.336    2.967    3.086
 pw_copy_to_array                  2872 12.5    2.745    3.067    2.745    3.067
 pw_axpy                           2878 10.1    2.689    2.953    2.689    2.953
 dbcsr_complete_redistribute       3205 10.7    0.133    0.220    2.799    2.938
 integrate_four_center_dist_KS      479 10.6    0.108    0.120    2.798    2.811
 calculate_rho_atom_coeff           341  7.6    0.227    0.472    2.393    2.418
 pw_copy_from_array                2735 12.8    1.909    2.398    1.909    2.398
 qs_ot_get_p                        200  8.0    0.001    0.001    2.332    2.342
 mp_isend_dm3                     11758 12.1    1.077    2.328    1.077    2.328
 multiply_cannon_loop              3568 11.9    0.537    0.555    2.147    2.246
 calculate_rho0_atom               1020  9.4    2.051    2.213    2.051    2.213
 pw_zero                           2888 10.5    2.027    2.210    2.027    2.210
 create_qs_kind_set                   1  2.0    0.000    0.000    2.032    2.032
 read_qs_kind                         3  3.0    1.098    1.153    2.032    2.032
 copy_fm_to_dbcsr                  2077  9.8    0.009    0.010    1.803    1.940
 copy_dbcsr_to_fm                  1126  9.7    0.015    0.015    1.859    1.908
 mp_irecv_dm3                     11758 12.1    1.102    1.800    1.102    1.800
 powell_optimize                 649645 11.0    1.632    1.768    1.632    1.768
 qs_ot_p2m_diag                     199  9.0    0.004    0.007    1.737    1.744
 make_m2s                          7136 10.9    0.117    0.124    1.591    1.727
 mp_isend_dv                     202791 13.5    1.188    1.713    1.188    1.713
 calc_pair_dist_radii                 1 10.0    0.730    0.801    1.503    1.644
 transfer_rs2pw_10                  341 10.6    0.595    0.624    1.542    1.592
 ot_mini                            199  8.0    0.001    0.001    1.538    1.549
 cp_dbcsr_sm_fm_multiply_core       889  9.5    0.002    0.002    1.359    1.427
 qs_ot_get_derivative                67  9.0    0.001    0.001    1.406    1.409
 update_ks_atom                     339  8.4    0.118    0.290    1.168    1.374
 cp_fm_syevd                        248 10.3    0.001    0.002    1.346    1.347
 mp_max_i                           807  5.5    1.010    1.343    1.010    1.343
 tddfpt_print_nto_analysis            1  6.0    0.002    0.003    1.260    1.261
 make_images                       7136 11.9    0.282    0.310    1.170    1.260
 transfer_pw2rs_10                  207 12.0    0.380    0.424    1.031    1.166
 mp_bcast_dm                       4270  9.5    1.055    1.158    1.055    1.158
 fft_wrap_pw1pw2_30                 548 11.2    0.034    0.040    1.012    1.153
 cp_fm_redistribute_end             248 11.3    0.630    1.137    0.637    1.143
 cp_dbcsr_syevd                     199 10.0    0.011    0.012    1.109    1.113
 qs_ot_get_derivative_diag           66 10.0    0.001    0.002    1.085    1.089
 mp_alltoall_i11v                 10940 11.8    1.027    1.028    1.027    1.028
 cp_fm_syevd_base                   248 11.3    0.501    1.006    0.501    1.006
 scale_and_distribute               678 10.8    0.851    0.962    0.851    0.962
 parser_read_line                232831  4.0    0.082    0.087    0.933    0.943
 cp_fm_geeig                         20  7.0    0.001    0.001    0.901    0.901
 parser_read_line_low               252  5.0    0.077    0.381    0.852    0.864
 tddfpt_orthonormalize_psi1_psi       8  6.9    0.014    0.015    0.861    0.861
 mp_alltoall_i22                   4398 11.7    0.698    0.855    0.698    0.855
 qs_energies_init_hamiltonians        1  3.0    0.000    0.000    0.796    0.796
 broadcast_input_information        252  6.0    0.186    0.202    0.775    0.792
 build_core_hamiltonian_matrix        1  4.0    0.000    0.000    0.790    0.790
 overlap_condnum                      1  5.0    0.000    0.000    0.783    0.788
 pw_poisson_rebuild                 339  9.8    0.000    0.000    0.759    0.772
 ps_wavelet_create                    1 10.0    0.000    0.000    0.759    0.772
 RS_z_slice_distribution              1 11.0    0.678    0.713    0.759    0.772
 dbcsr_desymmetrize_deep           1127 10.7    0.021    0.025    0.723    0.772
 arnoldi_conjugate_gradient           7  6.0    0.018    0.021    0.724    0.724
 cp_dbcsr_plus_fm_fm_t              141  9.0    0.002    0.002    0.640    0.644
 qs_ot_get_orbitals                 199  8.0    0.001    0.001    0.616    0.621
 tddfpt_apply_energy_diff             7  8.0    0.001    0.001    0.620    0.620
 prepare_dr1dr                      700 11.1    0.499    0.583    0.499    0.583
 offload_free_buffer                347  9.7    0.103    0.571    0.103    0.571
 tddfpt_compute_residual_vects        6  7.0    0.001    0.001    0.530    0.530
 multiply_cannon_metrocomm3       85632 12.9    0.136    0.142    0.371    0.509
 multiply_cannon_metrocomm4       78496 12.9    0.233    0.245    0.459    0.492
 dbcsr_sym_matrix_vector_mult      2836  7.2    0.044    0.048    0.389    0.476
 tddfpt_construct_ground_state_       1  6.0    0.000    0.000    0.455    0.461
 multiply_cannon_metrocomm2       74928 12.9    0.223    0.237    0.410    0.451
 parallel_gemm_fm                  1196  8.3    0.002    0.002    0.439    0.450
 make_images_sizes                 7136 12.9    0.008    0.008    0.431    0.449
 parallel_gemm_fm_gemm             1196  9.3    0.002    0.002    0.437    0.448
 cp_fm_gemm                        1196 10.3    0.436    0.447    0.436    0.447
 mp_alltoall_i44                   7136 13.9    0.423    0.441    0.423    0.441
 hybrid_alltoall_any               8263 13.6    0.064    0.093    0.384    0.441
 fft_wrap_pw1pw2_10                 548 11.2    0.009    0.009    0.400    0.424
 mp_bcast_i_src                    1008  7.0    0.336    0.393    0.336    0.393
 dbcsr_finalize                   12715 11.3    0.047    0.095    0.228    0.390
 mp_rank_compare                   5607 13.7    0.336    0.372    0.336    0.372
 init_scf_run                         1  3.0    0.000    0.000    0.348    0.348
 scf_env_initial_rho_setup            1  4.0    0.000    0.000    0.348    0.348
 calculate_dm_sparse                200  7.0    0.001    0.001    0.323    0.331
 dbcsr_create_new                 82792 11.9    0.228    0.236    0.306    0.319
 qs_init_subsys                       1  2.0    0.007    0.007    0.309    0.310
 dbcsr_make_images_dense           4816 11.9    0.072    0.081    0.217    0.309
 mp_allgather_i34                  3568 11.9    0.277    0.308    0.277    0.308
 multiply_cannon_metrocomm1       85632 12.9    0.095    0.097    0.245    0.307
 mp_irecv_dv                     199537 13.5    0.185    0.298    0.185    0.298
 mp_bcast_am_src                    252  7.0    0.233    0.281    0.248    0.293
 make_images_data                  7136 12.9    0.070    0.093    0.161    0.281
 pw_scale                           548  9.5    0.219    0.270    0.219    0.270
 dbcsr_add_d                       4575  7.4    0.005    0.005    0.042    0.270
 arnoldi_extremal                   200  9.0    0.003    0.004    0.264    0.268
 arnoldi_normal_ev                  201 10.0    0.003    0.004    0.263    0.267
 dbcsr_add_anytype                 4575  8.4    0.006    0.034    0.037    0.265
 qs_env_setup                         1  3.0    0.000    0.000    0.257    0.264
 qs_env_rebuild_pw_env                2  3.5    0.000    0.000    0.256    0.263
 pw_env_rebuild                       1  5.0    0.001    0.001    0.255    0.263
 xc_2nd_deriv_of_r                  560 10.0    0.001    0.044    0.008    0.258
 mp_alltoall_z11v                   548 14.2    0.232    0.257    0.232    0.257
 create_kernel_env                    1  6.0    0.000    0.000    0.222    0.242
 xc_prep_2nd_deriv                    1  7.0    0.000    0.000    0.222    0.242
 multiply_cannon_multrec          85632 12.9    0.112    0.225    0.126    0.241
 pw_grid_setup                        4  6.0    0.000    0.000    0.227    0.234
 pw_grid_setup_internal               4  7.0    0.006    0.008    0.226    0.234
 dbcsr_make_dense_low             13966 12.8    0.069    0.073    0.107    0.226
 vxc_of_r_new                       796  9.0    0.001    0.018    0.007    0.216
 cp_fm_redistribute_start           248 11.3    0.166    0.169    0.207    0.215
 cp_fm_trace_a1b1t1_aa            10080  8.0    0.047    0.050    0.214    0.214
 dbcsr_merge_all                  11481 12.3    0.100    0.157    0.131    0.213
 dbcsr_col_vec_to_rep_row          4943 10.2    0.034    0.040    0.138    0.211
 build_subspace                     201 11.0    0.009    0.011    0.197    0.200
 mp_cart_sub                       2255 11.7    0.197    0.199    0.197    0.199
 mp_cart_create                    2148 10.6    0.183    0.194    0.186    0.197
 dbcsr_iterator_start             88803 11.3    0.095    0.160    0.116    0.195
 dbcsr_special_finalize           17840 12.9    0.047    0.049    0.149    0.193
 rs_scatter_matrices                341  8.6    0.003    0.010    0.170    0.183
 cp_fm_cholesky_decompose            23  7.9    0.171    0.172    0.171    0.172
 pw_grid_sort                         4  8.0    0.106    0.109    0.155    0.159
 dbcsr_rep_row_to_rep_col_vec      2836  8.2    0.014    0.018    0.071    0.156
 dbcsr_matrix_vector_mult          2107 12.0    0.019    0.020    0.101    0.151
 xz_to_yz                           341 12.6    0.012    0.014    0.141    0.150
 cp_fm_triangular_invert             20  8.0    0.145    0.145    0.145    0.145
 mp_isend_iv                     168586 13.9    0.129    0.136    0.129    0.136
 dbcsr_destroy                    76140 11.3    0.093    0.095    0.128    0.134
 yz_to_xz                           207 14.0    0.012    0.013    0.115    0.134
 mp_bcast_dv                       5191 11.3    0.052    0.131    0.052    0.131
 dbcsr_iterator_stop              88803 11.3    0.070    0.110    0.086    0.130
 ot_new_cg_direction                 67  9.0    0.001    0.001    0.124    0.124
 dbcsr_data_new                  221794 12.9    0.090    0.120    0.090    0.120
 dbcsr_data_release              384069 12.9    0.096    0.118    0.096    0.118
 make_dense_data                  13966 13.8    0.006    0.050    0.008    0.117
 apply_preconditioner_dbcsr          68 10.0    0.000    0.000    0.109    0.114
 apply_single                        68 11.0    0.000    0.000    0.109    0.114
 dbcsr_copy                       16270  8.5    0.056    0.060    0.105    0.114
 dbcsr_work_create                30514 12.5    0.050    0.066    0.074    0.102
 cp_fm_triangular_multiply           61  8.0    0.087    0.088    0.087    0.088
 dbcsr_work_destroy_all           30514 13.4    0.047    0.063    0.062    0.087
 setup_buffer_matrices             7136 11.9    0.026    0.028    0.082    0.085
 mp_irecv_iv                     168585 13.9    0.074    0.082    0.074    0.082
 dbcsr_merge_single_wm             8210 13.7    0.040    0.049    0.047    0.081
 scf_post_calculation_gpw             1  3.0    0.000    0.000    0.079    0.079
 tddfpt_orthogonalize_psi1_psi0       8  6.9    0.000    0.000    0.069    0.079
 write_available_results              1  4.0    0.000    0.000    0.079    0.079
 write_mo_free_results                1  5.0    0.006    0.008    0.079    0.079
 dbcsr_make_dense                  1926 11.1    0.008    0.008    0.041    0.075
 tddfpt_compute_ritz_vects            7  7.0    0.005    0.005    0.072    0.072
 -------------------------------------------------------------------------------

 The number of warnings for this run is : 2
 
 -------------------------------------------------------------------------------
  **** **** ******  **  PROGRAM ENDED AT                 2025-04-28 04:54:15.462
 ***** ** ***  *** **   PROGRAM RAN ON                              i03r03c02s08
 **    ****   ******    PROGRAM RAN BY                                   di38fab
 ***** **    ** ** **   PROGRAM PROCESS ID                               2056224
  **** **  *******  **  PROGRAM STOPPED IN /hppfs/scratch/04/di38fab/07_MOL_non_
                                           aug/05_MOL_non_aug/05_MOL/W4-11+ALK/c
                                           2h3f/QZVPP/TDDFT
