SIRIUS 7.5.2, git hash: https://api.github.com/repos/electronic-structure/SIRIUS/git/ref/tags/v7.5.2
 DBCSR| CPU Multiplication driver                                           XSMM (U)
 DBCSR| Multrec recursion limit                                              512 (U)
 DBCSR| Multiplication stack size                                           1000 (D)
 DBCSR| Maximum elements for images                                    UNLIMITED (U)
 DBCSR| Multiplicative factor virtual images                                   1 (U)
 DBCSR| Use multiplication densification                                       T (D)
 DBCSR| Multiplication size stacks                                             3 (U)
 DBCSR| Use memory pool for CPU allocation                                     F (U)
 DBCSR| Number of 3D layers                                               SINGLE (U)
 DBCSR| Use MPI memory allocation                                              F (U)
 DBCSR| Use RMA algorithm                                                      F (U)
 DBCSR| Use Communication thread                                               T (U)
 DBCSR| Communication thread load                                             75 (D)
 DBCSR| MPI: My process id                                                     0
 DBCSR| MPI: Number of processes                                             192
 DBCSR| OMP: Current number of threads                                         4
 DBCSR| OMP: Max number of threads                                             4
 DBCSR| Split modifier for TAS multiplication algorithm                  1.0E+00 (U)


  **** **** ******  **  PROGRAM STARTED AT               2025-03-21 03:52:52.211
 ***** ** ***  *** **   PROGRAM STARTED ON                              n2cn0176
 **    ****   ******    PROGRAM STARTED BY                              metdyn02
 ***** **    ** ** **   PROGRAM PROCESS ID                                499208
  **** **  *******  **  PROGRAM STARTED IN /scratch/hpc-prf-metdyn/metdyn02_Remi
                                           /10_MOL/05_MOL/aUKBqsEOTmq69kFe5R_nOg
                                           /5k_set_final_qzvp/BEPTUL/TZVP/TDDFT/
                                           RILIM

 CP2K| version string:                 CP2K version 2025.1 (Development Version)
 CP2K| source code revision number:                                  git:f0c7327
 CP2K| cp2kflags: omp libint fftw3 libxc libgrpp elpa parallel scalapack mpi_f08
 CP2K|             cosma xsmm plumed2 spglib sirius libvori libbqb libvdwxc hdf5
 CP2K| is freely available from                            https://www.cp2k.org/
 CP2K| Program compiled at                          Wed Mar 12 18:25:30 CET 2025
 CP2K| Program compiled on                                              n2login1
 CP2K| Program compiled for                                                local
 CP2K| Data directory path    /opt/software/pc2/EB-SW/software/CP2K/2024.1-foss-
 CP2K| Input file name                                                    GW.inp

 GLOBAL| Force Environment number                                              1
 GLOBAL| Basis set file name            /scratch/hpc-prf-metdyn/metdyn02_Remi/BA
 GLOBAL| Potential file name            /pc2/groups/hpc-prf-metdyn/metdyn02_Remi
 GLOBAL| MM Potential file name                                     MM_POTENTIAL
 GLOBAL| Coordinate file name                                      __STD_INPUT__
 GLOBAL| Method name                                                        CP2K
 GLOBAL| Project name                                                       MoS2
 GLOBAL| Run type                                                         ENERGY
 GLOBAL| FFT library                                                       FFTW3
 GLOBAL| Diagonalization library                                            ELPA
 GLOBAL| DGEMM library                                                      BLAS
 GLOBAL| Minimum number of eigenvectors for ELPA usage                        16
 GLOBAL| Orthonormality check for eigenvectors                          DISABLED
 GLOBAL| Matrix multiplication library                                     COSMA
 GLOBAL| All-to-all communication in single precision                          F
 GLOBAL| FFTs using library dependent lengths                                  F
 GLOBAL| Grid backend                                                       AUTO
 GLOBAL| Global print level                                               MEDIUM
 GLOBAL| MPI I/O enabled                                                       T
 GLOBAL| Total number of message passing processes                           192
 GLOBAL| Number of threads for this process                                    4
 GLOBAL| This output is from process                                           0
 GLOBAL| OpenMP stack size per thread (OMP_STACKSIZE)                    default
 GLOBAL| CPU model name                          AMD EPYC 7763 64-Core Processor
 GLOBAL| CPUID                                                              1002

 MEMORY| system memory details [Kb]
 MEMORY|                        rank 0           min           max       average
 MEMORY| MemTotal            263899260     263899260     263899264     263899262
 MEMORY| MemFree             241770344     238396100     244046724     241896433
 MEMORY| Buffers                 54588         54588        273552        160262
 MEMORY| Cached                9547804       5735976      10540428       7923331
 MEMORY| Slab                  2101784       2101784       3136384       2430091
 MEMORY| SReclaimable           806552        380636        973244        576972
 MEMORY| MemLikelyFree       252179288     250056308     252179288     250556998


 *** Fundamental physical constants (SI units) ***

 *** Literature: B. J. Mohr and B. N. Taylor,
 ***             CODATA recommended values of the fundamental physical
 ***             constants: 2006, Web Version 5.1
 ***             http://physics.nist.gov/constants

 Speed of light in vacuum [m/s]                             2.99792458000000E+08
 Magnetic constant or permeability of vacuum [N/A**2]       1.25663706143592E-06
 Electric constant or permittivity of vacuum [F/m]          8.85418781762039E-12
 Planck constant (h) [J*s]                                  6.62606896000000E-34
 Planck constant (h-bar) [J*s]                              1.05457162825177E-34
 Elementary charge [C]                                      1.60217648700000E-19
 Electron mass [kg]                                         9.10938215000000E-31
 Electron g factor [ ]                                     -2.00231930436220E+00
 Proton mass [kg]                                           1.67262163700000E-27
 Fine-structure constant                                    7.29735253760000E-03
 Rydberg constant [1/m]                                     1.09737315685270E+07
 Avogadro constant [1/mol]                                  6.02214179000000E+23
 Boltzmann constant [J/K]                                   1.38065040000000E-23
 Atomic mass unit [kg]                                      1.66053878200000E-27
 Bohr radius [m]                                            5.29177208590000E-11

 *** Conversion factors ***

 [u] -> [a.u.]                                              1.82288848426455E+03
 [Angstrom] -> [Bohr] = [a.u.]                              1.88972613288564E+00
 [a.u.] = [Bohr] -> [Angstrom]                              5.29177208590000E-01
 [a.u.] -> [s]                                              2.41888432650478E-17
 [a.u.] -> [fs]                                             2.41888432650478E-02
 [a.u.] -> [J]                                              4.35974393937059E-18
 [a.u.] -> [N]                                              8.23872205491840E-08
 [a.u.] -> [K]                                              3.15774647902944E+05
 [a.u.] -> [kJ/mol]                                         2.62549961709828E+03
 [a.u.] -> [kcal/mol]                                       6.27509468713739E+02
 [a.u.] -> [Pa]                                             2.94210107994716E+13
 [a.u.] -> [bar]                                            2.94210107994716E+08
 [a.u.] -> [atm]                                            2.90362800883016E+08
 [a.u.] -> [eV]                                             2.72113838565563E+01
 [a.u.] -> [Hz]                                             6.57968392072181E+15
 [a.u.] -> [1/cm] (wave numbers)                            2.19474631370540E+05
 [a.u./Bohr**2] -> [1/cm]                                   5.14048714338585E+03
 

 CELL_TOP| Volume [angstrom^3]:                                     27000.000000
 CELL_TOP| Vector a [angstrom    30.000     0.000     0.000   |a| =    30.000000
 CELL_TOP| Vector b [angstrom     0.000    30.000     0.000   |b| =    30.000000
 CELL_TOP| Vector c [angstrom     0.000     0.000    30.000   |c| =    30.000000
 CELL_TOP| Angle (b,c), alpha [degree]:                                90.000000
 CELL_TOP| Angle (a,c), beta  [degree]:                                90.000000
 CELL_TOP| Angle (a,b), gamma [degree]:                                90.000000
 CELL_TOP| Numerically orthorhombic:                                         YES
 CELL_TOP| Periodicity                                                      NONE

 GENERATE|  Preliminary Number of Bonds generated:                             0
 GENERATE|  Achieved consistency in connectivity generation.

 CELL| Volume [angstrom^3]:                                         27000.000000
 CELL| Vector a [angstrom]:      30.000     0.000     0.000   |a| =    30.000000
 CELL| Vector b [angstrom]:       0.000    30.000     0.000   |b| =    30.000000
 CELL| Vector c [angstrom]:       0.000     0.000    30.000   |c| =    30.000000
 CELL| Angle (b,c), alpha [degree]:                                    90.000000
 CELL| Angle (a,c), beta  [degree]:                                    90.000000
 CELL| Angle (a,b), gamma [degree]:                                    90.000000
 CELL| Numerically orthorhombic:                                             YES
 CELL| Periodicity                                                          NONE

 CELL_REF| Volume [angstrom^3]:                                     27000.000000
 CELL_REF| Vector a [angstrom    30.000     0.000     0.000   |a| =    30.000000
 CELL_REF| Vector b [angstrom     0.000    30.000     0.000   |b| =    30.000000
 CELL_REF| Vector c [angstrom     0.000     0.000    30.000   |c| =    30.000000
 CELL_REF| Angle (b,c), alpha [degree]:                                90.000000
 CELL_REF| Angle (a,c), beta  [degree]:                                90.000000
 CELL_REF| Angle (a,b), gamma [degree]:                                90.000000
 CELL_REF| Numerically orthorhombic:                                         YES
 CELL_REF| Periodicity                                                      NONE

 *******************************************************************************
 *******************************************************************************
 **                                                                           **
 **     #####                         ##              ##                      **
 **    ##   ##            ##          ##              ##                      **
 **   ##     ##                       ##            ######                    **
 **   ##     ##  ##   ##  ##   #####  ##  ##   ####   ##    #####    #####    **
 **   ##     ##  ##   ##  ##  ##      ## ##   ##      ##   ##   ##  ##   ##   **
 **   ##  ## ##  ##   ##  ##  ##      ####     ###    ##   ######   ######    **
 **    ##  ###   ##   ##  ##  ##      ## ##      ##   ##   ##       ##        **
 **     #######   #####   ##   #####  ##  ##  ####    ##    #####   ##        **
 **           ##                                                    ##        **
 **                                                                           **
 **                                                ... make the atoms dance   **
 **                                                                           **
 **            Copyright (C) by CP2K developers group (2000-2025)             **
 **                      J. Chem. Phys. 152, 194103 (2020)                    **
 **                                                                           **
 *******************************************************************************

 DFT| Spin restricted Kohn-Sham (RKS) calculation                            RKS
 DFT| Multiplicity                                                             1
 DFT| Number of spin states                                                    1
 DFT| Charge                                                                   0
 DFT| Self-interaction correction (SIC)                                       NO
 DFT| Cutoffs: density                                              1.000000E-10
 DFT|          gradient                                             1.000000E-10
 DFT|          tau                                                  1.000000E-10
 DFT|          cutoff_smoothing_range                               0.000000E+00
 DFT| XC density smoothing                                                  NONE
 DFT| XC derivatives                                                          PW

 FUNCTIONAL| PBE:
 FUNCTIONAL| J.P.Perdew, K.Burke, M.Ernzerhof, Phys. Rev. Letter, vol. 77, n 18,
 FUNCTIONAL|  pp. 3865-3868, (1996)sx=0.750sc=1.000{spin unpolarized}           


 QS| Method:                                                                GAPW
 QS| Density plane wave grid type                        NON-SPHERICAL FULLSPACE
 QS| Number of grid levels:                                                    4
 QS| Density cutoff [a.u.]:                                                250.0
 QS| Multi grid cutoff [a.u.]: 1) grid level                               250.0
 QS|                           2) grid level                                83.3
 QS|                           3) grid level                                27.8
 QS|                           4) grid level                                 9.3
 QS| Grid level progression factor:                                          3.0
 QS| Relative density cutoff [a.u.]:                                        50.0
 QS| Interaction thresholds: eps_pgf_orb:                                1.0E-12
 QS|                         eps_filter_matrix:                          0.0E+00
 QS|                         eps_core_charge:                            1.0E-14
 QS|                         eps_rho_gspace:                             1.0E-12
 QS|                         eps_rho_rspace:                             1.0E-12
 QS|                         eps_gvg_rspace:                             1.0E-06
 QS|                         eps_ppl:                                    1.0E-02
 QS|                         eps_ppnl:                                   1.0E-08
 QS| GAPW|      One center basis from orbital basis primitives
 QS| GAPW|                   eps_fit:                                    1.0E-04
 QS| GAPW|                   eps_iso:                                    1.0E-12
 QS| GAPW|                   eps_svd:                                    1.0E-08
 QS| GAPW|                   eps_cpc:                                    1.0E-12
 QS| GAPW|   atom-r-grid: quadrature:                                     GC_LOG
 QS| GAPW|      atom-s-grid:  max l :                                          8
 QS| GAPW|      max_l_rho0 :                                                   2


 ATOMIC KIND INFORMATION

  1. Atomic kind: O                                     Number of atoms:       3

     Orbital Basis Set                                        aug-TZVP-MOLOPT-ae

       Number of orbital shell sets:                                           2
       Number of orbital shells:                                              16
       Number of primitive Cartesian functions:                               13
       Number of Cartesian basis functions:                                   71
       Number of spherical basis functions:                                   56
       Norm type:                                                              2

       Normalised Cartesian orbitals:

                        Set   Shell   Orbital            Exponent    Coefficient

                          1       1    1s                0.050000       0.000000
                                                         0.148931       0.008771
                                                         0.454433       0.026241
                                                         1.335408       0.005818
                                                         4.395399       0.718493
                                                        12.309450       2.903007
                                                        62.914956       1.320675

                          1       2    2s                0.050000       0.000000
                                                         0.148931       0.036066
                                                         0.454433       0.073646
                                                         1.335408       0.667362
                                                         4.395399      -0.111917
                                                        12.309450      -0.053902
                                                        62.914956      -0.747743

                          1       3    3s                0.050000       0.000000
                                                         0.148931       0.072341
                                                         0.454433       0.339134
                                                         1.335408      -0.296204
                                                         4.395399      -0.066370
                                                        12.309450      -0.509964
                                                        62.914956       0.182030

                          1       4    4s                0.050000       0.000000
                                                         0.148931       0.257390
                                                         0.454433      -0.327789
                                                         1.335408      -0.186757
                                                         4.395399      -0.014958
                                                        12.309450      -0.201401
                                                        62.914956       1.590188

                          1       5    5s                0.050000       0.095896
                                                         0.148931      -0.062439
                                                         0.454433       0.011784
                                                         1.335408      -0.100924
                                                         4.395399       0.000000
                                                        12.309450       0.000000
                                                        62.914956       0.000000

                          1       6    2px               0.050000       0.000000
                                                         0.148931       0.002211
                                                         0.454433      -0.015509
                                                         1.335408       1.487193
                                                         4.395399       2.867225
                                                        12.309450       3.872733
                                                        62.914956     -23.794765
                          1       6    2py               0.050000       0.000000
                                                         0.148931       0.002211
                                                         0.454433      -0.015509
                                                         1.335408       1.487193
                                                         4.395399       2.867225
                                                        12.309450       3.872733
                                                        62.914956     -23.794765
                          1       6    2pz               0.050000       0.000000
                                                         0.148931       0.002211
                                                         0.454433      -0.015509
                                                         1.335408       1.487193
                                                         4.395399       2.867225
                                                        12.309450       3.872733
                                                        62.914956     -23.794765

                          1       7    3px               0.050000       0.000000
                                                         0.148931       0.008518
                                                         0.454433       0.481961
                                                         1.335408       0.085170
                                                         4.395399       0.441215
                                                        12.309450      -1.837950
                                                        62.914956      36.698597
                          1       7    3py               0.050000       0.000000
                                                         0.148931       0.008518
                                                         0.454433       0.481961
                                                         1.335408       0.085170
                                                         4.395399       0.441215
                                                        12.309450      -1.837950
                                                        62.914956      36.698597
                          1       7    3pz               0.050000       0.000000
                                                         0.148931       0.008518
                                                         0.454433       0.481961
                                                         1.335408       0.085170
                                                         4.395399       0.441215
                                                        12.309450      -1.837950
                                                        62.914956      36.698597

                          1       8    4px               0.050000       0.000000
                                                         0.148931       0.138320
                                                         0.454433      -0.034294
                                                         1.335408      -0.042535
                                                         4.395399      -0.295522
                                                        12.309450       0.600610
                                                        62.914956     -10.152534
                          1       8    4py               0.050000       0.000000
                                                         0.148931       0.138320
                                                         0.454433      -0.034294
                                                         1.335408      -0.042535
                                                         4.395399      -0.295522
                                                        12.309450       0.600610
                                                        62.914956     -10.152534
                          1       8    4pz               0.050000       0.000000
                                                         0.148931       0.138320
                                                         0.454433      -0.034294
                                                         1.335408      -0.042535
                                                         4.395399      -0.295522
                                                        12.309450       0.600610
                                                        62.914956     -10.152534

                          1       9    5px               0.050000      -0.000964
                                                         0.148931       0.027417
                                                         0.454433       0.328542
                                                         1.335408       0.651611
                                                         4.395399       0.000000
                                                        12.309450       0.000000
                                                        62.914956       0.000000
                          1       9    5py               0.050000      -0.000964
                                                         0.148931       0.027417
                                                         0.454433       0.328542
                                                         1.335408       0.651611
                                                         4.395399       0.000000
                                                        12.309450       0.000000
                                                        62.914956       0.000000
                          1       9    5pz               0.050000      -0.000964
                                                         0.148931       0.027417
                                                         0.454433       0.328542
                                                         1.335408       0.651611
                                                         4.395399       0.000000
                                                        12.309450       0.000000
                                                        62.914956       0.000000

                          1      10    3dx2              0.050000       0.000000
                                                         0.148931       0.011799
                                                         0.454433       0.037044
                                                         1.335408       1.177796
                                                         4.395399      13.187048
                                                        12.309450      -3.718320
                                                        62.914956     245.407483
                          1      10    3dxy              0.050000       0.000000
                                                         0.148931       0.020436
                                                         0.454433       0.064161
                                                         1.335408       2.040003
                                                         4.395399      22.840637
                                                        12.309450      -6.440319
                                                        62.914956     425.058229
                          1      10    3dxz              0.050000       0.000000
                                                         0.148931       0.020436
                                                         0.454433       0.064161
                                                         1.335408       2.040003
                                                         4.395399      22.840637
                                                        12.309450      -6.440319
                                                        62.914956     425.058229
                          1      10    3dy2              0.050000       0.000000
                                                         0.148931       0.011799
                                                         0.454433       0.037044
                                                         1.335408       1.177796
                                                         4.395399      13.187048
                                                        12.309450      -3.718320
                                                        62.914956     245.407483
                          1      10    3dyz              0.050000       0.000000
                                                         0.148931       0.020436
                                                         0.454433       0.064161
                                                         1.335408       2.040003
                                                         4.395399      22.840637
                                                        12.309450      -6.440319
                                                        62.914956     425.058229
                          1      10    3dz2              0.050000       0.000000
                                                         0.148931       0.011799
                                                         0.454433       0.037044
                                                         1.335408       1.177796
                                                         4.395399      13.187048
                                                        12.309450      -3.718320
                                                        62.914956     245.407483

                          1      11    4dx2              0.050000       0.000000
                                                         0.148931      -0.006399
                                                         0.454433       0.341143
                                                         1.335408       1.062793
                                                         4.395399      -7.656182
                                                        12.309450       6.262545
                                                        62.914956    -198.939864
                          1      11    4dxy              0.050000       0.000000
                                                         0.148931      -0.011084
                                                         0.454433       0.590877
                                                         1.335408       1.840811
                                                         4.395399     -13.260897
                                                        12.309450      10.847045
                                                        62.914956    -344.573952
                          1      11    4dxz              0.050000       0.000000
                                                         0.148931      -0.011084
                                                         0.454433       0.590877
                                                         1.335408       1.840811
                                                         4.395399     -13.260897
                                                        12.309450      10.847045
                                                        62.914956    -344.573952
                          1      11    4dy2              0.050000       0.000000
                                                         0.148931      -0.006399
                                                         0.454433       0.341143
                                                         1.335408       1.062793
                                                         4.395399      -7.656182
                                                        12.309450       6.262545
                                                        62.914956    -198.939864
                          1      11    4dyz              0.050000       0.000000
                                                         0.148931      -0.011084
                                                         0.454433       0.590877
                                                         1.335408       1.840811
                                                         4.395399     -13.260897
                                                        12.309450      10.847045
                                                        62.914956    -344.573952
                          1      11    4dz2              0.050000       0.000000
                                                         0.148931      -0.006399
                                                         0.454433       0.341143
                                                         1.335408       1.062793
                                                         4.395399      -7.656182
                                                        12.309450       6.262545
                                                        62.914956    -198.939864

                          1      12    5dx2              0.050000      -0.000167
                                                         0.148931       0.000910
                                                         0.454433       0.391605
                                                         1.335408       0.205296
                                                         4.395399       0.000000
                                                        12.309450       0.000000
                                                        62.914956       0.000000
                          1      12    5dxy              0.050000      -0.000290
                                                         0.148931       0.001577
                                                         0.454433       0.678279
                                                         1.335408       0.355584
                                                         4.395399       0.000000
                                                        12.309450       0.000000
                                                        62.914956       0.000000
                          1      12    5dxz              0.050000      -0.000290
                                                         0.148931       0.001577
                                                         0.454433       0.678279
                                                         1.335408       0.355584
                                                         4.395399       0.000000
                                                        12.309450       0.000000
                                                        62.914956       0.000000
                          1      12    5dy2              0.050000      -0.000167
                                                         0.148931       0.000910
                                                         0.454433       0.391605
                                                         1.335408       0.205296
                                                         4.395399       0.000000
                                                        12.309450       0.000000
                                                        62.914956       0.000000
                          1      12    5dyz              0.050000      -0.000290
                                                         0.148931       0.001577
                                                         0.454433       0.678279
                                                         1.335408       0.355584
                                                         4.395399       0.000000
                                                        12.309450       0.000000
                                                        62.914956       0.000000
                          1      12    5dz2              0.050000      -0.000167
                                                         0.148931       0.000910
                                                         0.454433       0.391605
                                                         1.335408       0.205296
                                                         4.395399       0.000000
                                                        12.309450       0.000000
                                                        62.914956       0.000000

                          1      13    4fx3              0.050000       0.000000
                                                         0.148931       0.001654
                                                         0.454433       0.066745
                                                         1.335408       2.406605
                                                         4.395399      -5.031344
                                                        12.309450      16.622131
                                                        62.914956       4.775823
                          1      13    4fx2y             0.050000       0.000000
                                                         0.148931       0.003699
                                                         0.454433       0.149247
                                                         1.335408       5.381333
                                                         4.395399     -11.250428
                                                        12.309450      37.168214
                                                        62.914956      10.679064
                          1      13    4fx2z             0.050000       0.000000
                                                         0.148931       0.003699
                                                         0.454433       0.149247
                                                         1.335408       5.381333
                                                         4.395399     -11.250428
                                                        12.309450      37.168214
                                                        62.914956      10.679064
                          1      13    4fxy2             0.050000       0.000000
                                                         0.148931       0.003699
                                                         0.454433       0.149247
                                                         1.335408       5.381333
                                                         4.395399     -11.250428
                                                        12.309450      37.168214
                                                        62.914956      10.679064
                          1      13    4fxyz             0.050000       0.000000
                                                         0.148931       0.006406
                                                         0.454433       0.258503
                                                         1.335408       9.320743
                                                         4.395399     -19.486313
                                                        12.309450      64.377235
                                                        62.914956      18.496681
                          1      13    4fxz2             0.050000       0.000000
                                                         0.148931       0.003699
                                                         0.454433       0.149247
                                                         1.335408       5.381333
                                                         4.395399     -11.250428
                                                        12.309450      37.168214
                                                        62.914956      10.679064
                          1      13    4fy3              0.050000       0.000000
                                                         0.148931       0.001654
                                                         0.454433       0.066745
                                                         1.335408       2.406605
                                                         4.395399      -5.031344
                                                        12.309450      16.622131
                                                        62.914956       4.775823
                          1      13    4fy2z             0.050000       0.000000
                                                         0.148931       0.003699
                                                         0.454433       0.149247
                                                         1.335408       5.381333
                                                         4.395399     -11.250428
                                                        12.309450      37.168214
                                                        62.914956      10.679064
                          1      13    4fyz2             0.050000       0.000000
                                                         0.148931       0.003699
                                                         0.454433       0.149247
                                                         1.335408       5.381333
                                                         4.395399     -11.250428
                                                        12.309450      37.168214
                                                        62.914956      10.679064
                          1      13    4fz3              0.050000       0.000000
                                                         0.148931       0.001654
                                                         0.454433       0.066745
                                                         1.335408       2.406605
                                                         4.395399      -5.031344
                                                        12.309450      16.622131
                                                        62.914956       4.775823

                          1      14    5fx3              0.050000      -0.000035
                                                         0.148931       0.000216
                                                         0.454433       0.256015
                                                         1.335408      -0.160820
                                                         4.395399       0.000000
                                                        12.309450       0.000000
                                                        62.914956       0.000000
                          1      14    5fx2y             0.050000      -0.000077
                                                         0.148931       0.000483
                                                         0.454433       0.572467
                                                         1.335408      -0.359605
                                                         4.395399       0.000000
                                                        12.309450       0.000000
                                                        62.914956       0.000000
                          1      14    5fx2z             0.050000      -0.000077
                                                         0.148931       0.000483
                                                         0.454433       0.572467
                                                         1.335408      -0.359605
                                                         4.395399       0.000000
                                                        12.309450       0.000000
                                                        62.914956       0.000000
                          1      14    5fxy2             0.050000      -0.000077
                                                         0.148931       0.000483
                                                         0.454433       0.572467
                                                         1.335408      -0.359605
                                                         4.395399       0.000000
                                                        12.309450       0.000000
                                                        62.914956       0.000000
                          1      14    5fxyz             0.050000      -0.000134
                                                         0.148931       0.000837
                                                         0.454433       0.991542
                                                         1.335408      -0.622854
                                                         4.395399       0.000000
                                                        12.309450       0.000000
                                                        62.914956       0.000000
                          1      14    5fxz2             0.050000      -0.000077
                                                         0.148931       0.000483
                                                         0.454433       0.572467
                                                         1.335408      -0.359605
                                                         4.395399       0.000000
                                                        12.309450       0.000000
                                                        62.914956       0.000000
                          1      14    5fy3              0.050000      -0.000035
                                                         0.148931       0.000216
                                                         0.454433       0.256015
                                                         1.335408      -0.160820
                                                         4.395399       0.000000
                                                        12.309450       0.000000
                                                        62.914956       0.000000
                          1      14    5fy2z             0.050000      -0.000077
                                                         0.148931       0.000483
                                                         0.454433       0.572467
                                                         1.335408      -0.359605
                                                         4.395399       0.000000
                                                        12.309450       0.000000
                                                        62.914956       0.000000
                          1      14    5fyz2             0.050000      -0.000077
                                                         0.148931       0.000483
                                                         0.454433       0.572467
                                                         1.335408      -0.359605
                                                         4.395399       0.000000
                                                        12.309450       0.000000
                                                        62.914956       0.000000
                          1      14    5fz3              0.050000      -0.000035
                                                         0.148931       0.000216
                                                         0.454433       0.256015
                                                         1.335408      -0.160820
                                                         4.395399       0.000000
                                                        12.309450       0.000000
                                                        62.914956       0.000000

                          1      15    5gx4              0.050000       0.000008
                                                         0.148931       0.000769
                                                         0.454433       0.118509
                                                         1.335408       0.001274
                                                         4.395399       0.000000
                                                        12.309450       0.000000
                                                        62.914956       0.000000
                          1      15    5gx3y             0.050000       0.000022
                                                         0.148931       0.002034
                                                         0.454433       0.313545
                                                         1.335408       0.003370
                                                         4.395399       0.000000
                                                        12.309450       0.000000
                                                        62.914956       0.000000
                          1      15    5gx3z             0.050000       0.000022
                                                         0.148931       0.002034
                                                         0.454433       0.313545
                                                         1.335408       0.003370
                                                         4.395399       0.000000
                                                        12.309450       0.000000
                                                        62.914956       0.000000
                          1      15    5gx2y2            0.050000       0.000029
                                                         0.148931       0.002626
                                                         0.454433       0.404785
                                                         1.335408       0.004351
                                                         4.395399       0.000000
                                                        12.309450       0.000000
                                                        62.914956       0.000000
                          1      15    5gx2yz            0.050000       0.000050
                                                         0.148931       0.004548
                                                         0.454433       0.701109
                                                         1.335408       0.007536
                                                         4.395399       0.000000
                                                        12.309450       0.000000
                                                        62.914956       0.000000
                          1      15    5gx2z2            0.050000       0.000029
                                                         0.148931       0.002626
                                                         0.454433       0.404785
                                                         1.335408       0.004351
                                                         4.395399       0.000000
                                                        12.309450       0.000000
                                                        62.914956       0.000000
                          1      15    5gxy3             0.050000       0.000022
                                                         0.148931       0.002034
                                                         0.454433       0.313545
                                                         1.335408       0.003370
                                                         4.395399       0.000000
                                                        12.309450       0.000000
                                                        62.914956       0.000000
                          1      15    5gxy2z            0.050000       0.000050
                                                         0.148931       0.004548
                                                         0.454433       0.701109
                                                         1.335408       0.007536
                                                         4.395399       0.000000
                                                        12.309450       0.000000
                                                        62.914956       0.000000
                          1      15    5gxyz2            0.050000       0.000050
                                                         0.148931       0.004548
                                                         0.454433       0.701109
                                                         1.335408       0.007536
                                                         4.395399       0.000000
                                                        12.309450       0.000000
                                                        62.914956       0.000000
                          1      15    5gxz3             0.050000       0.000022
                                                         0.148931       0.002034
                                                         0.454433       0.313545
                                                         1.335408       0.003370
                                                         4.395399       0.000000
                                                        12.309450       0.000000
                                                        62.914956       0.000000
                          1      15    5gy4              0.050000       0.000008
                                                         0.148931       0.000769
                                                         0.454433       0.118509
                                                         1.335408       0.001274
                                                         4.395399       0.000000
                                                        12.309450       0.000000
                                                        62.914956       0.000000
                          1      15    5gy3z             0.050000       0.000022
                                                         0.148931       0.002034
                                                         0.454433       0.313545
                                                         1.335408       0.003370
                                                         4.395399       0.000000
                                                        12.309450       0.000000
                                                        62.914956       0.000000
                          1      15    5gy2z2            0.050000       0.000029
                                                         0.148931       0.002626
                                                         0.454433       0.404785
                                                         1.335408       0.004351
                                                         4.395399       0.000000
                                                        12.309450       0.000000
                                                        62.914956       0.000000
                          1      15    5gyz3             0.050000       0.000022
                                                         0.148931       0.002034
                                                         0.454433       0.313545
                                                         1.335408       0.003370
                                                         4.395399       0.000000
                                                        12.309450       0.000000
                                                        62.914956       0.000000
                          1      15    5gz4              0.050000       0.000008
                                                         0.148931       0.000769
                                                         0.454433       0.118509
                                                         1.335408       0.001274
                                                         4.395399       0.000000
                                                        12.309450       0.000000
                                                        62.914956       0.000000

                          2       1    1s            27032.341107       0.827485
                                                      4052.439160       2.350354
                                                       922.349653       2.989583
                                                       261.277359       5.859993
                                                        85.309424       4.920023
                                                        31.080802       6.525964

     RI Auxiliary Basis Set             RI_aug-TZVP-MOLOPT-ae_N_RI_119_s_p_d_f_g

       Number of orbital shell sets:                                          27
       Number of orbital shells:                                              27
       Number of primitive Cartesian functions:                               27
       Number of Cartesian basis functions:                                  162
       Number of spherical basis functions:                                  119
       Norm type:                                                              2

       Normalised Cartesian orbitals:

                        Set   Shell   Orbital            Exponent    Coefficient

                          1       1   14dx2              0.303628       0.204413
                          1       1   14dxy              0.303628       0.354054
                          1       1   14dxz              0.303628       0.354054
                          1       1   14dy2              0.303628       0.204413
                          1       1   14dyz              0.303628       0.354054
                          1       1   14dz2              0.303628       0.204413

                          2       1    1s                0.313134       0.298337

                          3       1    8px               0.481155       0.571211
                          3       1    8py               0.481155       0.571211
                          3       1    8pz               0.481155       0.571211

                          4       1   15dx2              0.569752       0.614978
                          4       1   15dxy              0.569752       1.065173
                          4       1   15dxz              0.569752       1.065173
                          4       1   15dy2              0.569752       0.614978
                          4       1   15dyz              0.569752       1.065173
                          4       1   15dz2              0.569752       0.614978

                          5       1   20fx3              0.618494       0.499412
                          5       1   20fx2y             0.618494       1.116720
                          5       1   20fx2z             0.618494       1.116720
                          5       1   20fxy2             0.618494       1.116720
                          5       1   20fxyz             0.618494       1.934216
                          5       1   20fxz2             0.618494       1.116720
                          5       1   20fy3              0.618494       0.499412
                          5       1   20fy2z             0.618494       1.116720
                          5       1   20fyz2             0.618494       1.116720
                          5       1   20fz3              0.618494       0.499412

                          6       1   25gx4              0.693241       0.406319
                          6       1   25gx3y             0.693241       1.075020
                          6       1   25gx3z             0.693241       1.075020
                          6       1   25gx2y2            0.693241       1.387844
                          6       1   25gx2yz            0.693241       2.403817
                          6       1   25gx2z2            0.693241       1.387844
                          6       1   25gxy3             0.693241       1.075020
                          6       1   25gxy2z            0.693241       2.403817
                          6       1   25gxyz2            0.693241       2.403817
                          6       1   25gxz3             0.693241       1.075020
                          6       1   25gy4              0.693241       0.406319
                          6       1   25gy3z             0.693241       1.075020
                          6       1   25gy2z2            0.693241       1.387844
                          6       1   25gyz3             0.693241       1.075020
                          6       1   25gz4              0.693241       0.406319

                          7       1    2s                0.796361       0.600818

                          8       1    9px               0.914696       1.275076
                          8       1    9py               0.914696       1.275076
                          8       1    9pz               0.914696       1.275076

                          9       1   27hx5              0.922662       0.571128
                          9       1   27hx4y             0.922662       1.713383
                          9       1   27hx4z             0.922662       1.713383
                          9       1   27hx3y2            0.922662       2.617235
                          9       1   27hx3yz            0.922662       4.533184
                          9       1   27hx3z2            0.922662       2.617235
                          9       1   27hx2y3            0.922662       2.617235
                          9       1   27hx2y2z           0.922662       5.852316
                          9       1   27hx2yz2           0.922662       5.852316
                          9       1   27hx2z3            0.922662       2.617235
                          9       1   27hxy4             0.922662       1.713383
                          9       1   27hxy3z            0.922662       4.533184
                          9       1   27hxy2z2           0.922662       5.852316
                          9       1   27hxyz3            0.922662       4.533184
                          9       1   27hxz4             0.922662       1.713383
                          9       1   27hy5              0.922662       0.571128
                          9       1   27hy4z             0.922662       1.713383
                          9       1   27hy3z2            0.922662       2.617235
                          9       1   27hy2z3            0.922662       2.617235
                          9       1   27hyz4             0.922662       1.713383
                          9       1   27hz5              0.922662       0.571128

                         10       1   21fx3              1.022133       1.546487
                         10       1   21fx2y             1.022133       3.458050
                         10       1   21fx2z             1.022133       3.458050
                         10       1   21fxy2             1.022133       3.458050
                         10       1   21fxyz             1.022133       5.989519
                         10       1   21fxz2             1.022133       3.458050
                         10       1   21fy3              1.022133       1.546487
                         10       1   21fy2z             1.022133       3.458050
                         10       1   21fyz2             1.022133       3.458050
                         10       1   21fz3              1.022133       1.546487

                         11       1   16dx2              1.083996       1.895432
                         11       1   16dxy              1.083996       3.282985
                         11       1   16dxz              1.083996       3.282985
                         11       1   16dy2              1.083996       1.895432
                         11       1   16dyz              1.083996       3.282985
                         11       1   16dz2              1.083996       1.895432

                         12       1    3s                1.262532       0.848871

                         13       1   22fx3              1.716659       4.965850
                         13       1   22fx2y             1.716659      11.103979
                         13       1   22fx2z             1.716659      11.103979
                         13       1   22fxy2             1.716659      11.103979
                         13       1   22fxyz             1.716659      19.232655
                         13       1   22fxz2             1.716659      11.103979
                         13       1   22fy3              1.716659       4.965850
                         13       1   22fy2z             1.716659      11.103979
                         13       1   22fyz2             1.716659      11.103979
                         13       1   22fz3              1.716659       4.965850

                         14       1   17dx2              2.056765       5.814104
                         14       1   17dxy              2.056765      10.070323
                         14       1   17dxz              2.056765      10.070323
                         14       1   17dy2              2.056765       5.814104
                         14       1   17dyz              2.056765      10.070323
                         14       1   17dz2              2.056765       5.814104

                         15       1   10px               2.090735       3.583552
                         15       1   10py               2.090735       3.583552
                         15       1   10pz               2.090735       3.583552

                         16       1   26gx4              2.179110       9.477706
                         16       1   26gx3y             2.179110      25.075652
                         16       1   26gx3z             2.179110      25.075652
                         16       1   26gx2y2            2.179110      32.372528
                         16       1   26gx2yz            2.179110      56.070863
                         16       1   26gx2z2            2.179110      32.372528
                         16       1   26gxy3             2.179110      25.075652
                         16       1   26gxy2z            2.179110      56.070863
                         16       1   26gxyz2            2.179110      56.070863
                         16       1   26gxz3             2.179110      25.075652
                         16       1   26gy4              2.179110       9.477706
                         16       1   26gy3z             2.179110      25.075652
                         16       1   26gy2z2            2.179110      32.372528
                         16       1   26gyz3             2.179110      25.075652
                         16       1   26gz4              2.179110       9.477706

                         17       1   23fx3              2.884307      15.960550
                         17       1   23fx2y             2.884307      35.688875
                         17       1   23fx2z             2.884307      35.688875
                         17       1   23fxy2             2.884307      35.688875
                         17       1   23fxyz             2.884307      61.814944
                         17       1   23fxz2             2.884307      35.688875
                         17       1   23fy3              2.884307      15.960550
                         17       1   23fy2z             2.884307      35.688875
                         17       1   23fyz2             2.884307      35.688875
                         17       1   23fz3              2.884307      15.960550

                         18       1    4s                3.454747       1.806019

                         19       1   18dx2              3.924565      18.011281
                         19       1   18dxy              3.924565      31.196454
                         19       1   18dxz              3.924565      31.196454
                         19       1   18dy2              3.924565      18.011281
                         19       1   18dyz              3.924565      31.196454
                         19       1   18dz2              3.924565      18.011281

                         20       1   24fx3              5.093807      57.385216
                         20       1   24fx2y             5.093807     128.317245
                         20       1   24fx2z             5.093807     128.317245
                         20       1   24fxy2             5.093807     128.317245
                         20       1   24fxyz             5.093807     222.251987
                         20       1   24fxz2             5.093807     128.317245
                         20       1   24fy3              5.093807      57.385216
                         20       1   24fy2z             5.093807     128.317245
                         20       1   24fyz2             5.093807     128.317245
                         20       1   24fz3              5.093807      57.385216

                         21       1   11px               5.255486      11.342431
                         21       1   11py               5.255486      11.342431
                         21       1   11pz               5.255486      11.342431

                         22       1   19dx2              7.665259      58.120780
                         22       1   19dxy              7.665259     100.668144
                         22       1   19dxz              7.665259     100.668144
                         22       1   19dy2              7.665259      58.120780
                         22       1   19dyz              7.665259     100.668144
                         22       1   19dz2              7.665259      58.120780

                         23       1    5s               11.971140       4.586820

                         24       1   12px              12.834518      34.626975
                         24       1   12py              12.834518      34.626975
                         24       1   12pz              12.834518      34.626975

                         25       1   13px              30.936808     104.000269
                         25       1   13py              30.936808     104.000269
                         25       1   13pz              30.936808     104.000269

                         26       1    6s               41.209988      11.592096

                         27       1    7s              127.285581      27.008129

       Atomic covalent radius [Angstrom]:                                  0.730

       Atomic van der Waals radius [Angstrom]:                             1.520

     The atoms of this atomic kind are PAW atoms (GAPW):
       Hard Gaussian function radius:                                      1.512
       Rho0 radius:                                                        1.512
       Maximum GTO radius used for PAW projector construction:            24.566

     GAPW Soft Basis Set                                 aug-TZVP-MOLOPT-ae_soft

       Number of orbital shell sets:                                           2
       Number of orbital shells:                                              16
       Number of primitive Cartesian functions:                                5
       Number of Cartesian basis functions:                                   71
       Number of spherical basis functions:                                   56
       Norm type:                                                              2

       Normalised Cartesian orbitals:

                        Set   Shell   Orbital            Exponent    Coefficient

                          1       1    1s                0.050000       0.000000
                                                         0.148931       0.008771
                                                         0.454433       0.026241
                                                         1.335408       0.005818
                                                         4.395399       0.000000

                          1       2    2s                0.050000       0.000000
                                                         0.148931       0.036066
                                                         0.454433       0.073646
                                                         1.335408       0.667362
                                                         4.395399       0.000000

                          1       3    3s                0.050000       0.000000
                                                         0.148931       0.072341
                                                         0.454433       0.339134
                                                         1.335408      -0.296204
                                                         4.395399       0.000000

                          1       4    4s                0.050000       0.000000
                                                         0.148931       0.257390
                                                         0.454433      -0.327789
                                                         1.335408      -0.186757
                                                         4.395399       0.000000

                          1       5    5s                0.050000       0.095896
                                                         0.148931      -0.062439
                                                         0.454433       0.011784
                                                         1.335408      -0.100924
                                                         4.395399       0.000000

                          1       6    2px               0.050000       0.000000
                                                         0.148931       0.002211
                                                         0.454433      -0.015509
                                                         1.335408       1.487193
                                                         4.395399       0.000000
                          1       6    2py               0.050000       0.000000
                                                         0.148931       0.002211
                                                         0.454433      -0.015509
                                                         1.335408       1.487193
                                                         4.395399       0.000000
                          1       6    2pz               0.050000       0.000000
                                                         0.148931       0.002211
                                                         0.454433      -0.015509
                                                         1.335408       1.487193
                                                         4.395399       0.000000

                          1       7    3px               0.050000       0.000000
                                                         0.148931       0.008518
                                                         0.454433       0.481961
                                                         1.335408       0.085170
                                                         4.395399       0.000000
                          1       7    3py               0.050000       0.000000
                                                         0.148931       0.008518
                                                         0.454433       0.481961
                                                         1.335408       0.085170
                                                         4.395399       0.000000
                          1       7    3pz               0.050000       0.000000
                                                         0.148931       0.008518
                                                         0.454433       0.481961
                                                         1.335408       0.085170
                                                         4.395399       0.000000

                          1       8    4px               0.050000       0.000000
                                                         0.148931       0.138320
                                                         0.454433      -0.034294
                                                         1.335408      -0.042535
                                                         4.395399       0.000000
                          1       8    4py               0.050000       0.000000
                                                         0.148931       0.138320
                                                         0.454433      -0.034294
                                                         1.335408      -0.042535
                                                         4.395399       0.000000
                          1       8    4pz               0.050000       0.000000
                                                         0.148931       0.138320
                                                         0.454433      -0.034294
                                                         1.335408      -0.042535
                                                         4.395399       0.000000

                          1       9    5px               0.050000      -0.000964
                                                         0.148931       0.027417
                                                         0.454433       0.328542
                                                         1.335408       0.651611
                                                         4.395399       0.000000
                          1       9    5py               0.050000      -0.000964
                                                         0.148931       0.027417
                                                         0.454433       0.328542
                                                         1.335408       0.651611
                                                         4.395399       0.000000
                          1       9    5pz               0.050000      -0.000964
                                                         0.148931       0.027417
                                                         0.454433       0.328542
                                                         1.335408       0.651611
                                                         4.395399       0.000000

                          1      10    3dx2              0.050000       0.000000
                                                         0.148931       0.011799
                                                         0.454433       0.037044
                                                         1.335408       1.177796
                                                         4.395399       0.000000
                          1      10    3dxy              0.050000       0.000000
                                                         0.148931       0.020436
                                                         0.454433       0.064161
                                                         1.335408       2.040003
                                                         4.395399       0.000000
                          1      10    3dxz              0.050000       0.000000
                                                         0.148931       0.020436
                                                         0.454433       0.064161
                                                         1.335408       2.040003
                                                         4.395399       0.000000
                          1      10    3dy2              0.050000       0.000000
                                                         0.148931       0.011799
[...]


 -------------------------------------------------------------------------------
 -                                                                             -
 -                           R E F E R E N C E S                               -
 -                                                                             -
 -------------------------------------------------------------------------------
 
 CP2K version 2025.1 (Development Version), the CP2K developers group (2025).
 CP2K is freely available from https://www.cp2k.org/ .
 
 T. D. Kuehne, M. Iannuzzi, M. Del Ben, V. V. Rybkin, P. Seewald, F. Stein, T. 
 Laino, R. Z. Khaliullin, O. Schuett, F. Schiffmann, D. Golze, J. Wilhelm, S. 
 Chulkov, M. H. Bani-Hashemian, V. Weber, U. Borstnik, M. Taillefumier, A. S. 
 Jakobovits, A. Lazzaro, H. Pabst, T. Mueller, R. Schade, M. Guidon, S. 
 Andermatt, N. Holmberg, G. K. Schenter, A. Hehn, A. Bussy, F. Belleflamme, G. 
 Tabacchi, A. Gloess, M. Lass, I. Bethune, C. J. Mundy, C. Plessl, M. Watkins, 
 J. VandeVondele, M. Krack, J. Hutter.
 J. Chem. Phys. 152, 194103 (2020).
 CP2K: An electronic structure and molecular dynamics software package - 
 Quickstep: Efficient and accurate electronic structure calculations.
 https://doi.org/10.1063/5.0007045

 O. Schuett, P. Messmer, J. Hutter, J. VandeVondele.
 Electronic Structure Calculations on Graphics Processing Units, 173-190 (2016).
 GPU-Accelerated Sparse Matrix-Matrix Multiplication for Linear Scaling Density 
 Functional Theory.
 https://doi.org/10.1002/9781118670712.ch8

 A. Heinecke, G. Henry, M. Hutchinson, H. Pabst.
 Proceedings of Intl. Supercomputing Conference, 981-991 (2016).
 LIBXSMM: Accelerating Small Matrix Multiplications by Runtime Code Generation.
 https://doi.org/10.1109/SC.2016.83

 J. Hutter, M. Iannuzzi, F. Schiffmann, J. VandeVondele.
 WIREs Comput Mol Sci. 4, 15-25 (2014).
 CP2K: atomistic simulations of condensed matter systems.
 https://doi.org/10.1002/wcms.1159

 U. Borstnik, J. VandeVondele, V. Weber, J. Hutter.
 Parallel Comput. 40, 47-58 (2014).
 Sparse matrix multiplication: The distributed block-compressed sparse row 
 library.
 https://doi.org/10.1016/j.parco.2014.03.012

 A. Marek, V. Blum, R. Johanni, V. Havu, B. Lang, T. Auckenthaler, A. Heinecke, 
 H. Bungartz, H. Lederer.
 J. Phys. Condens. Matter 26, 213201 (2014).
 The ELPA library: scalable parallel eigenvalue solutions for electronic 
 structure theory and computational science.
 https://doi.org/10.1088/0953-8984/26/21/213201

 M. Guidon, J. Hutter, J. VandeVondele.
 J. Chem. Theory Comput. 5, 3010-3021 (2009).
 Robust Periodic Hartree-Fock Exchange for Large-Scale Simulations Using 
 Gaussian Basis Sets.
 https://doi.org/10.1021/ct900494g

 M. Guidon, F. Schiffmann, J. Hutter, J. VandeVondele.
 J. Chem. Phys. 128, 214104 (2008).
 Ab initio molecular dynamics using hybrid density functionals.
 https://doi.org/10.1063/1.2931945

 L. Genovese, T. Deutsch, S. Goedecker.
 J. Chem. Phys. 127, 054704 (2007).
 Efficient and accurate three-dimensional Poisson solver for surface problems.
 https://doi.org/10.1063/1.2754685

 J. VandeVondele, J. Hutter.
 J. Chem. Phys. 127, 114105 (2007).
 Gaussian basis sets for accurate calculations on molecular systems in gas and 
 condensed phases.
 https://doi.org/10.1063/1.2770708

 L. Genovese, T. Deutsch, A. Neelov, S. Goedecker, G. Beylkin.
 J. Chem. Phys. 125, 074105 (2006).
 Efficient solution of Poisson's equation with free boundary conditions.
 https://doi.org/10.1063/1.2335442

 M. Iannuzzi, T. Chassaing, T. Wallman, J. Hutter.
 CHIMIA 59, 499-503 (2005).
 Ground and excited state density functional calculations with the Gaussian and 
 augmented-plane-wave method.
 https://doi.org/10.2533/000942905777676164

 M. Frigo, S. G. Johnson.
 Proc. IEEE 93, 216-231 (2005).
 The design and implementation of FFTW3.
 https://doi.org/10.1109/JPROC.2004.840301

 R. L. Martin.
 J. Chem. Phys. 118, 4775-4777 (2003).
 Natural transition orbitals.
 https://doi.org/10.1063/1.1558471

 M. Krack, M. Parrinello.
 Phys. Chem. Chem. Phys. 2, 2105-2112 (2000).
 All-electron ab-initio molecular dynamics.
 https://doi.org/10.1039/b001167n

 G. Lippert, J. Hutter, M. Parrinello.
 Theor. Chem. Acc. 103, 124-140 (1999).
 The Gaussian and augmented-plane-wave density functional method for ab initio 
 molecular dynamics simulations.
 https://doi.org/10.1007/s002140050523

 J. P. Perdew, K. Burke, M. Ernzerhof.
 Phys. Rev. Lett. 77, 3865-3868 (1996).
 Generalized gradient approximation made simple.
 https://doi.org/10.1103/PhysRevLett.77.3865


 -------------------------------------------------------------------------------
 -                                                                             -
 -                                T I M I N G                                  -
 -                                                                             -
 -------------------------------------------------------------------------------
 SUBROUTINE                       CALLS  ASD         SELF TIME        TOTAL TIME
                                MAXIMUM       AVERAGE  MAXIMUM  AVERAGE  MAXIMUM
 CP2K                                 1  1.0    0.016    0.035 2058.064 2058.070
 qs_energies                          1  2.0    0.000    0.000 2057.668 2057.674
 integrate_four_center              436  9.8   50.052   65.552 1589.938 1590.079
 scf_env_do_scf                       1  3.0    0.000    0.000 1482.100 1482.108
 scf_env_do_scf_inner_loop           76  4.0    0.002    0.006 1482.100 1482.108
 integrate_four_center_main         436 10.8    6.059   24.524 1324.391 1444.543
 qs_ks_update_qs_env                 76  5.0    0.001    0.001 1443.134 1443.436
 rebuild_ks_matrix                   76  6.0    0.000    0.000 1443.125 1443.426
 qs_ks_build_kohn_sham_matrix        76  7.0    0.011    0.014 1443.124 1443.426
 integrate_four_center_bin        66403 11.8 1318.331 1443.025 1318.331 1443.025
 hfx_ks_matrix                       76  8.0    0.001    0.002 1339.024 1339.061
 qs_energies_properties               1  3.0    0.000    0.000  573.657  573.659
 tddfpt                               1  4.0    0.000    0.000  573.657  573.659
 tddfpt_energies                      1  5.0    0.000    0.000  573.609  573.610
 tddfpt_davidson_solver               1  6.0    0.001    0.001  569.878  569.879
 tddfpt_compute_Aop_evects            9  7.0    0.000    0.000  567.545  567.547
 mp_sync                           2314 11.5  144.975  416.627  144.975  416.627
 fhxc_kernel                          9  8.0    0.008    0.010  313.352  313.353
 tddfpt_apply_hfx                     9  8.0    0.002    0.003  253.685  253.686
 tddft_hfx_matrix                   360  9.0    0.004    0.008  250.924  251.048
 fft_wrap_pw1pw2                   5210 11.1    0.103    0.132  165.606  174.129
 fft_wrap_pw1pw2_250               3668 12.1    2.913    3.878  157.811  170.984
 fft3d_ps                          5210 13.1   18.247   25.522  153.987  161.882
 mp_alltoall_z22v                  5210 15.1  129.822  137.181  129.822  137.181
 tddfpt_apply_coulomb               180  9.0    0.003    0.004  100.851  103.861
 pw_poisson_solve                   256  9.4    1.046    1.466   97.977  100.975
 qs_rho_update_rho_low              258  7.8    0.003    0.004   95.229   95.280
 x_to_yz                           2128 13.7    2.376    3.915   81.067   85.308
 prepare_gapw_den                   257  8.7    0.005    0.006   78.624   80.871
 calculate_rho_elec                 258  8.8    0.338    0.480   79.556   79.567
 calc_screening_functions             1 10.0   61.604   62.834   62.298   63.554
 yz_to_x                           2054 14.5    1.793    2.060   52.770   58.523
 xc_pw_derive                      1539 11.0    0.012    0.014   53.721   55.622
 calculate_rho_atom                1028  9.7    5.444   55.158    5.444   55.158
 density_rs2pw                      258  9.8    0.011    0.013   46.866   51.901
 mp_sum_dv                        38773  8.8   49.378   51.901   49.378   51.901
 integrate_v_rspace                 256  9.0    0.007    0.009   48.804   51.809
 tddfpt_apply_xc_analytic           180  9.0    0.289    0.407   45.887   47.773
 potential_pw2rs                    256 10.0    0.027    0.034   45.369   45.691
 transfer_pw2rs                    1281 10.9    0.024    0.031   42.497   44.060
 mp_sum_d                         13432  7.3   24.148   41.539   24.148   41.539
 gaVxcgb_GC                         768  9.7    1.077   40.943    1.077   40.943
 ps_wavelet_solve                   256 10.4   15.242   21.067   37.262   39.837
 mp_waitany                       85378 12.8   33.583   39.091   33.583   39.091
 xc_pw_divergence                   256 10.7    0.005    0.006   35.084   35.934
 grid_collocate_task_list           258  9.8   29.874   35.930   29.874   35.930
 transfer_rs2pw                    1290 10.8    0.030    0.050   29.287   33.456
 calculate_xc_2nd_deriv_atom        180  9.0    0.103    1.773    0.906   30.997
 xc_calc_2nd_deriv_analytical      1260 10.2    1.284    1.597   26.551   27.121
 transfer_pw2rs_250                 513 11.7    5.056    5.658   24.982   27.067
 mp_alltoall_d54                    256 11.4   11.142   23.805   11.142   23.805
 put_rho0_on_grid                   257  9.7    0.369    0.580   21.252   23.527
 mp_sum_dm                        13233 10.0   20.235   21.806   20.235   21.806
 qs_vxc_create                       76  8.0    0.001    0.001   21.735   21.735
 xc_vxc_pw_create                    76  9.0    0.159    0.223   21.734   21.734
 integrate_vhg0_rspace              256  9.4    1.439    1.609   20.422   21.590
 transfer_rs2pw_250                 516 11.7    5.199    5.881   17.899   20.948
 mp_waitall_1                    496854 13.2   14.050   16.732   14.050   16.732
 mp_alltoall_d11v                 15996 11.6   10.901   16.515   10.901   16.515
 calculate_rho_atom_coeff           258  8.8    0.967    1.526   15.670   15.721
 fft_wrap_pw1pw2_90                 514 11.9    0.098    0.162    6.332   14.872
 mp_alltoall_d45                    257 11.4   11.234   13.823   11.234   13.823
 transfer_pw2rs_90                  256 12.0    0.997    1.257   10.359   13.263
 sum_up_and_integrate                76  8.0    0.001    0.002   12.076   12.914
 calculate_vxc_atom                  76  8.0    0.044    0.390   12.665   12.666
 xc_rho_set_and_dset_create          77 10.0    0.195    0.253   10.253   11.447
 mp_isend_dm3                     11314 12.8    7.760   10.308    7.760   10.308
 Vh_1c_gg_integrals                 256  9.4    0.123    3.457    4.466    9.701
 update_ks_atom                     256  8.7    0.536    1.491    6.009    8.167
 cp2k_distribution_to_z_slices      256 10.4    1.057    1.294    7.132    8.008
 mp_bcast_dm                       8704  9.7    5.473    7.978    5.473    7.978
 transfer_rs2pw_90                  258 11.8    1.218    1.626    6.405    7.901
 gspace_mixing                       75  5.0    0.098    0.139    7.099    7.110
 transfer_pw2rs_30                  256 12.0    1.115    1.353    6.092    7.099
 integrate_four_center_getP         436 10.8    0.377    0.510    5.416    6.880
 grid_integrate_task_list           256 10.0    0.570    6.009    0.570    6.009
 pw_integral_ab_c1d_c1d_gs          256 10.4    0.703    0.811    2.664    5.895
 rs_gather_matrices                 256 10.0    0.008    0.028    2.857    5.885
 rs_grid_zero                      1283 11.9    4.405    4.834    4.405    4.834
 cp_dbcsr_sm_fm_multiply           1126  8.6    0.014    0.019    4.407    4.734
 pw_derive                         2307 11.8    3.863    4.233    3.863    4.233
 qs_scf_new_mos                      76  5.0    0.001    0.001    4.062    4.169
 transfer_rs2pw_30                  258 11.8    1.420    1.772    3.690    4.164
 pw_copy                           3485 11.0    3.278    3.688    3.278    3.688
 calculate_rho0_atom               1028  9.7    3.297    3.640    3.297    3.640
 cp_fm_diag_elpa                    127  7.2    0.000    0.000    3.597    3.609
 mp_sendrecv_dv                   98556 12.8    3.105    3.467    3.105    3.467
 mp_sum_l                          5990 10.6    1.804    3.452    1.804    3.452
 eigensolver_symm                    76  6.0    0.005    0.006    3.404    3.414
 pw_gather_p                       2570 13.3    2.740    3.395    2.740    3.395
 cp_fm_diag_elpa_base               127  8.3    2.072    3.327    2.092    3.368
 parallel_gemm_fm                  1678  8.2    0.002    0.002    3.260    3.348
 parallel_gemm_fm_cosma            1678  9.2    3.258    3.347    3.258    3.347
 broyden_mixing                      75  6.0    3.089    3.212    3.230    3.271
 integrate_four_center_dist_KS      436 10.8    0.160    0.196    3.161    3.170
 pw_scatter_p                      2640 12.8    2.797    3.157    2.797    3.157
 integrate_four_center_load         436 10.8    0.001    0.002    1.276    2.907
 hfx_load_balance                     1 11.0    0.000    0.000    1.275    2.906
 hfx_load_balance_range               1 12.0    0.000    0.000    1.261    2.892
 dbcsr_complete_redistribute       3765 10.5    0.126    0.216    2.508    2.834
 mp_alltoall_i22                   4990 11.4    2.311    2.813    2.311    2.813
 dbcsr_multiply_generic            1562 10.3    0.039    0.063    2.372    2.712
 pw_copy_to_array                  2570 13.3    1.892    2.679    1.892    2.679
 tddfpt_print_nto_analysis            1  6.0    0.002    0.002    2.672    2.672
 cp_fm_redistribute_end             127  8.2    1.352    2.641    1.370    2.652
 mp_max_i                           727  5.1    1.140    2.598    1.140    2.598
 pw_poisson_set                     257 10.4    0.005    0.006    2.355    2.476
 copy_fm_to_dbcsr                  2539  9.5    0.007    0.008    1.766    2.098
 cp_dbcsr_sm_fm_multiply_core      1126  9.6    0.002    0.002    1.774    2.089
 xc_functional_eval                1613 10.9    0.001    0.003    0.911    2.004
 pbe_lda_eval                      1613 11.9    0.910    2.000    0.910    2.000
 copy_dbcsr_to_fm                  1224  9.3    0.009    0.010    1.636    1.912
 cp_fm_geeig                         20  7.0    0.001    0.001    1.788    1.790
 pw_axpy                           2748 10.8    1.458    1.715    1.458    1.715
 pw_zero                           2802 10.6    1.399    1.652    1.399    1.652
 transfer_rs2pw_10                  258 11.8    0.427    0.598    1.262    1.530
 multiply_cannon                   1562 11.3    0.093    0.099    1.104    1.461
 calc_pair_dist_radii                 1 10.0    0.854    0.879    1.312    1.432
 pw_copy_from_array                2640 12.8    1.059    1.418    1.059    1.418
 powell_optimize                 735806 11.0    1.152    1.399    1.152    1.399
 qs_energies_init_hamiltonians        1  3.0    0.000    0.000    1.329    1.329
 build_core_hamiltonian_matrix        1  4.0    0.000    0.000    1.324    1.324
 overlap_condnum                      1  5.0    0.000    0.000    1.305    1.324
 mp_isendrecv_dv                 264344 12.3    0.224    1.304    0.224    1.304
 fft_wrap_pw1pw2_30                 514 11.9    0.013    0.019    0.978    1.298
 arnoldi_conjugate_gradient           5  6.0    0.021    0.027    1.227    1.227
 transfer_pw2rs_10                  256 12.0    0.298    0.366    1.040    1.178
 multiply_cannon_loop              1562 12.3    0.100    0.108    0.817    1.166
 mp_alltoall_z11v                  1028 14.9    0.876    1.129    0.876    1.129
 dbcsr_desymmetrize_deep           1225 10.3    0.018    0.026    0.791    1.035
 tddfpt_compute_residual_vects        8  7.0    0.000    0.001    0.954    0.955
 tddfpt_orthonormalize_psi1_psi      10  6.9    0.010    0.011    0.937    0.938
 mp_irecv_dm3                     11314 12.8    0.250    0.902    0.250    0.902
 cp_dbcsr_plus_fm_fm_t              256  8.4    0.002    0.002    0.785    0.819
 multiply_cannon_metrocomm3       37488 13.3    0.053    0.057    0.398    0.809
 mp_rank_compare                   5210 14.1    0.747    0.800    0.747    0.800
 dbcsr_sym_matrix_vector_mult      7225  7.0    0.052    0.056    0.708    0.778
 pw_poisson_rebuild                 256 10.4    0.000    0.000    0.743    0.768
 ps_wavelet_create                    1 10.0    0.000    0.000    0.743    0.768
 RS_z_slice_distribution              1 11.0    0.193    0.216    0.743    0.768
 prepare_dr1dr                     1260 11.2    0.556    0.748    0.556    0.748
 tddfpt_construct_ground_state_       1  6.0    0.000    0.000    0.735    0.747
 make_m2s                          3124 11.3    0.029    0.032    0.601    0.656
 yz_to_xz                           512 14.0    0.035    0.042    0.480    0.641
 make_images                       3124 12.3    0.086    0.096    0.530    0.581
 xz_to_yz                           516 13.8    0.027    0.032    0.459    0.549
 offload_free_buffer                264 10.2    0.390    0.547    0.390    0.547
 tddfpt_apply_energy_diff             9  8.0    0.000    0.000    0.509    0.509
 init_scf_run                         1  3.0    0.000    0.000    0.490    0.490
 fft_wrap_pw1pw2_10                 514 11.9    0.004    0.005    0.383    0.477
 scf_env_initial_rho_setup            1  4.0    0.000    0.000    0.444    0.450
 dbcsr_rep_row_to_rep_col_vec      7225  8.0    0.019    0.026    0.225    0.425
 rs_scatter_matrices                258  9.8    0.003    0.009    0.030    0.415
 cp_fm_trace_a1b1t1_aa            16500  8.0    0.029    0.034    0.398    0.407
 multiply_cannon_metrocomm1       37488 13.3    0.020    0.022    0.093    0.394
 xc_2nd_deriv_of_r                 1080 10.0    0.002    0.043    0.012    0.388
 cp_fm_cholesky_decompose            20  8.0    0.382    0.384    0.382    0.384
 cp_fm_triangular_invert             20  8.0    0.372    0.372    0.372    0.372
 multiply_cannon_multrec          37488 13.3    0.040    0.337    0.044    0.342
 mp_isend_dv                     149040 13.5    0.179    0.330    0.179    0.330
 tddfpt_orthogonalize_psi1_psi0      10  6.9    0.000    0.000    0.297    0.327
 make_images_sizes                 3124 13.3    0.002    0.003    0.290    0.306
 mp_alltoall_i44                   3124 14.3    0.287    0.304    0.287    0.304
 scale_and_distribute               512 11.4    0.194    0.287    0.194    0.287
 dbcsr_col_vec_to_rep_row          7225  8.0    0.024    0.030    0.196    0.282
 mp_cart_sub                       2452 11.3    0.275    0.277    0.275    0.277
 cp_fm_triangular_multiply           60  8.0    0.266    0.267    0.266    0.267
 calculate_dm_sparse                 76  6.0    0.000    0.001    0.221    0.247
 dbcsr_finalize                   18406 11.3    0.021    0.056    0.134    0.244
 cp_fm_symm                          76  7.0    0.234    0.242    0.234    0.242
 mp_alltoall_i11v                 12520 11.5    0.117    0.239    0.117    0.239
 dbcsr_add_d                      10896  7.0    0.005    0.006    0.039    0.230
 dbcsr_add_anytype                10896  8.0    0.006    0.029    0.034    0.224
 -------------------------------------------------------------------------------

 The number of warnings for this run is : 1
 
 -------------------------------------------------------------------------------
  **** **** ******  **  PROGRAM ENDED AT                 2025-03-21 04:27:12.315
 ***** ** ***  *** **   PROGRAM RAN ON                                  n2cn0176
 **    ****   ******    PROGRAM RAN BY                                  metdyn02
 ***** **    ** ** **   PROGRAM PROCESS ID                                499208
  **** **  *******  **  PROGRAM STOPPED IN /scratch/hpc-prf-metdyn/metdyn02_Remi
                                           /10_MOL/05_MOL/aUKBqsEOTmq69kFe5R_nOg
                                           /5k_set_final_qzvp/BEPTUL/TZVP/TDDFT/
                                           RILIM
