SIRIUS 7.6.1, git hash: https://api.github.com/repos/electronic-structure/SIRIUS/git/ref/tags/v7.6.1
 DBCSR| CPU Multiplication driver                                           XSMM (U)
 DBCSR| Multrec recursion limit                                              512 (U)
 DBCSR| Multiplication stack size                                           1000 (D)
 DBCSR| Maximum elements for images                                    UNLIMITED (U)
 DBCSR| Multiplicative factor virtual images                                   1 (U)
 DBCSR| Use multiplication densification                                       T (D)
 DBCSR| Multiplication size stacks                                             3 (U)
 DBCSR| Use memory pool for CPU allocation                                     F (U)
 DBCSR| Number of 3D layers                                               SINGLE (U)
 DBCSR| Use MPI memory allocation                                              F (U)
 DBCSR| Use RMA algorithm                                                      F (U)
 DBCSR| Use Communication thread                                               T (U)
 DBCSR| Communication thread load                                             75 (D)
 DBCSR| MPI: My process id                                                     0
 DBCSR| MPI: Number of processes                                            1280
 DBCSR| OMP: Current number of threads                                         4
 DBCSR| OMP: Max number of threads                                             4
 DBCSR| Split modifier for TAS multiplication algorithm                  1.0E+00 (U)


  **** **** ******  **  PROGRAM STARTED AT               2025-04-01 13:54:30.057
 ***** ** ***  *** **   PROGRAM STARTED ON                 n2cn0174.ab2021.local
 **    ****   ******    PROGRAM STARTED BY                              metdyn02
 ***** **    ** ** **   PROGRAM PROCESS ID                               2025763
  **** **  *******  **  PROGRAM STARTED IN /scratch/hpc-prf-metdyn/metdyn02_Remi
                                           /10_MOL/05_MOL/aUKBqsEOTmq69kFe5R_nOg
                                           /5k_set_final_qzvp/XETJIQ/aug-cc-pV5Z
                                           /GW+BSE

 CP2K| version string:                 CP2K version 2025.1 (Development Version)
 CP2K| source code revision number:                                  git:8516643
 CP2K| cp2kflags: omp libint fftw3 libxc libgrpp elpa parallel scalapack mpi_f08
 CP2K|             cosma xsmm plumed2 spglib sirius libvori libbqb libvdwxc hdf5
 CP2K| is freely available from                            https://www.cp2k.org/
 CP2K| Program compiled at                         Mon Mar 31 17:07:56 CEST 2025
 CP2K| Program compiled on                                              n2login1
 CP2K| Program compiled for                                                local
 CP2K| Data directory path    /opt/software/pc2/EB-SW/software/CP2K/2024.1-foss-
 CP2K| Input file name                                                    GW.inp

 GLOBAL| Force Environment number                                              1
 GLOBAL| Basis set file name            /scratch/hpc-prf-metdyn/metdyn02_Remi/BA
 GLOBAL| Potential file name            /pc2/groups/hpc-prf-metdyn/metdyn02_Remi
 GLOBAL| MM Potential file name                                     MM_POTENTIAL
 GLOBAL| Coordinate file name                                      __STD_INPUT__
 GLOBAL| Method name                                                        CP2K
 GLOBAL| Project name                                                       MoS2
 GLOBAL| Run type                                                         ENERGY
 GLOBAL| FFT library                                                       FFTW3
 GLOBAL| Diagonalization library                                            ELPA
 GLOBAL| DGEMM library                                                      BLAS
 GLOBAL| Minimum number of eigenvectors for ELPA usage                        16
 GLOBAL| Orthonormality check for eigenvectors                          DISABLED
 GLOBAL| Matrix multiplication library                                     COSMA
 GLOBAL| All-to-all communication in single precision                          F
 GLOBAL| FFTs using library dependent lengths                                  F
 GLOBAL| Grid backend                                                       AUTO
 GLOBAL| Global print level                                               MEDIUM
 GLOBAL| MPI I/O enabled                                                       T
 GLOBAL| Total number of message passing processes                          1280
 GLOBAL| Number of threads for this process                                    4
 GLOBAL| This output is from process                                           0
 GLOBAL| OpenMP stack size per thread (OMP_STACKSIZE)                    default
 GLOBAL| CPU model name                          AMD EPYC 7763 64-Core Processor
 GLOBAL| CPUID                                                              1002

 MEMORY| system memory details [Kb]
 MEMORY|                        rank 0           min           max       average
 MEMORY| MemTotal            263899260     263899252     263899264     263899261
 MEMORY| MemFree             242377608     241065676     248699456     245115626
 MEMORY| Buffers                197188         31660        273916        131773
 MEMORY| Cached                7805088       4311524       9778532       6474299
 MEMORY| Slab                  2698552       1539888       2966652       2145007
 MEMORY| SReclaimable           839556        260788        985820        437006
 MEMORY| MemLikelyFree       251219440     251050632     253950436     252158705


 *** Fundamental physical constants (SI units) ***

 *** Literature: B. J. Mohr and B. N. Taylor,
 ***             CODATA recommended values of the fundamental physical
 ***             constants: 2006, Web Version 5.1
 ***             http://physics.nist.gov/constants

 Speed of light in vacuum [m/s]                             2.99792458000000E+08
 Magnetic constant or permeability of vacuum [N/A**2]       1.25663706143592E-06
 Electric constant or permittivity of vacuum [F/m]          8.85418781762039E-12
 Planck constant (h) [J*s]                                  6.62606896000000E-34
 Planck constant (h-bar) [J*s]                              1.05457162825177E-34
 Elementary charge [C]                                      1.60217648700000E-19
 Electron mass [kg]                                         9.10938215000000E-31
 Electron g factor [ ]                                     -2.00231930436220E+00
 Proton mass [kg]                                           1.67262163700000E-27
 Fine-structure constant                                    7.29735253760000E-03
 Rydberg constant [1/m]                                     1.09737315685270E+07
 Avogadro constant [1/mol]                                  6.02214179000000E+23
 Boltzmann constant [J/K]                                   1.38065040000000E-23
 Atomic mass unit [kg]                                      1.66053878200000E-27
 Bohr radius [m]                                            5.29177208590000E-11

 *** Conversion factors ***

 [u] -> [a.u.]                                              1.82288848426455E+03
 [Angstrom] -> [Bohr] = [a.u.]                              1.88972613288564E+00
 [a.u.] = [Bohr] -> [Angstrom]                              5.29177208590000E-01
 [a.u.] -> [s]                                              2.41888432650478E-17
 [a.u.] -> [fs]                                             2.41888432650478E-02
 [a.u.] -> [J]                                              4.35974393937059E-18
 [a.u.] -> [N]                                              8.23872205491840E-08
 [a.u.] -> [K]                                              3.15774647902944E+05
 [a.u.] -> [kJ/mol]                                         2.62549961709828E+03
 [a.u.] -> [kcal/mol]                                       6.27509468713739E+02
 [a.u.] -> [Pa]                                             2.94210107994716E+13
 [a.u.] -> [bar]                                            2.94210107994716E+08
 [a.u.] -> [atm]                                            2.90362800883016E+08
 [a.u.] -> [eV]                                             2.72113838565563E+01
 [a.u.] -> [Hz]                                             6.57968392072181E+15
 [a.u.] -> [1/cm] (wave numbers)                            2.19474631370540E+05
 [a.u./Bohr**2] -> [1/cm]                                   5.14048714338585E+03
 

 CELL_TOP| Volume [angstrom^3]:                                     27000.000000
 CELL_TOP| Vector a [angstrom    30.000     0.000     0.000   |a| =    30.000000
 CELL_TOP| Vector b [angstrom     0.000    30.000     0.000   |b| =    30.000000
 CELL_TOP| Vector c [angstrom     0.000     0.000    30.000   |c| =    30.000000
 CELL_TOP| Angle (b,c), alpha [degree]:                                90.000000
 CELL_TOP| Angle (a,c), beta  [degree]:                                90.000000
 CELL_TOP| Angle (a,b), gamma [degree]:                                90.000000
 CELL_TOP| Numerically orthorhombic:                                         YES
 CELL_TOP| Periodicity                                                      NONE

 GENERATE|  Preliminary Number of Bonds generated:                             0
 GENERATE|  Achieved consistency in connectivity generation.

 CELL| Volume [angstrom^3]:                                         27000.000000
 CELL| Vector a [angstrom]:      30.000     0.000     0.000   |a| =    30.000000
 CELL| Vector b [angstrom]:       0.000    30.000     0.000   |b| =    30.000000
 CELL| Vector c [angstrom]:       0.000     0.000    30.000   |c| =    30.000000
 CELL| Angle (b,c), alpha [degree]:                                    90.000000
 CELL| Angle (a,c), beta  [degree]:                                    90.000000
 CELL| Angle (a,b), gamma [degree]:                                    90.000000
 CELL| Numerically orthorhombic:                                             YES
 CELL| Periodicity                                                          NONE

 CELL_REF| Volume [angstrom^3]:                                     27000.000000
 CELL_REF| Vector a [angstrom    30.000     0.000     0.000   |a| =    30.000000
 CELL_REF| Vector b [angstrom     0.000    30.000     0.000   |b| =    30.000000
 CELL_REF| Vector c [angstrom     0.000     0.000    30.000   |c| =    30.000000
 CELL_REF| Angle (b,c), alpha [degree]:                                90.000000
 CELL_REF| Angle (a,c), beta  [degree]:                                90.000000
 CELL_REF| Angle (a,b), gamma [degree]:                                90.000000
 CELL_REF| Numerically orthorhombic:                                         YES
 CELL_REF| Periodicity                                                      NONE

 *******************************************************************************
 *******************************************************************************
 **                                                                           **
 **     #####                         ##              ##                      **
 **    ##   ##            ##          ##              ##                      **
 **   ##     ##                       ##            ######                    **
 **   ##     ##  ##   ##  ##   #####  ##  ##   ####   ##    #####    #####    **
 **   ##     ##  ##   ##  ##  ##      ## ##   ##      ##   ##   ##  ##   ##   **
 **   ##  ## ##  ##   ##  ##  ##      ####     ###    ##   ######   ######    **
 **    ##  ###   ##   ##  ##  ##      ## ##      ##   ##   ##       ##        **
 **     #######   #####   ##   #####  ##  ##  ####    ##    #####   ##        **
 **           ##                                                    ##        **
 **                                                                           **
 **                                                ... make the atoms dance   **
 **                                                                           **
 **            Copyright (C) by CP2K developers group (2000-2025)             **
 **                      J. Chem. Phys. 152, 194103 (2020)                    **
 **                                                                           **
 *******************************************************************************

 DFT| Spin restricted Kohn-Sham (RKS) calculation                            RKS
 DFT| Multiplicity                                                             1
 DFT| Number of spin states                                                    1
 DFT| Charge                                                                   0
 DFT| Self-interaction correction (SIC)                                       NO
 DFT| Cutoffs: density                                              1.000000E-10
 DFT|          gradient                                             1.000000E-10
 DFT|          tau                                                  1.000000E-10
 DFT|          cutoff_smoothing_range                               0.000000E+00
 DFT| XC density smoothing                                                  NONE
 DFT| XC derivatives                                                          PW

 FUNCTIONAL| PBE:
 FUNCTIONAL| J.P.Perdew, K.Burke, M.Ernzerhof, Phys. Rev. Letter, vol. 77, n 18,
 FUNCTIONAL|  pp. 3865-3868, (1996)sx=0.750sc=1.000{spin unpolarized}           


 QS| Method:                                                                GAPW
 QS| Density plane wave grid type                        NON-SPHERICAL FULLSPACE
 QS| Number of grid levels:                                                    4
 QS| Density cutoff [a.u.]:                                                250.0
 QS| Multi grid cutoff [a.u.]: 1) grid level                               250.0
 QS|                           2) grid level                                83.3
 QS|                           3) grid level                                27.8
 QS|                           4) grid level                                 9.3
 QS| Grid level progression factor:                                          3.0
 QS| Relative density cutoff [a.u.]:                                        50.0
 QS| Interaction thresholds: eps_pgf_orb:                                1.0E-12
 QS|                         eps_filter_matrix:                          0.0E+00
 QS|                         eps_core_charge:                            1.0E-14
 QS|                         eps_rho_gspace:                             1.0E-12
 QS|                         eps_rho_rspace:                             1.0E-12
 QS|                         eps_gvg_rspace:                             1.0E-06
 QS|                         eps_ppl:                                    1.0E-02
 QS|                         eps_ppnl:                                   1.0E-08
 QS| GAPW|      One center basis from orbital basis primitives
 QS| GAPW|                   eps_fit:                                    1.0E-04
 QS| GAPW|                   eps_iso:                                    1.0E-12
 QS| GAPW|                   eps_svd:                                    1.0E-08
 QS| GAPW|                   eps_cpc:                                    1.0E-12
 QS| GAPW|   atom-r-grid: quadrature:                                     GC_LOG
 QS| GAPW|      atom-s-grid:  max l :                                         10
 QS| GAPW|      max_l_rho0 :                                                   2


 ATOMIC KIND INFORMATION

  1. Atomic kind: H                                     Number of atoms:       8

     Orbital Basis Set                                               aug-cc-pV5Z

       Number of orbital shell sets:                                          10
       Number of orbital shells:                                              20
       Number of primitive Cartesian functions:                               23
       Number of Cartesian basis functions:                                  105
       Number of spherical basis functions:                                   80
       Norm type:                                                              2

       Normalised Cartesian orbitals:

                        Set   Shell   Orbital            Exponent    Coefficient

                          1       1    1s                0.020700       0.038894

                          2       1    1s              402.000000       0.000000
                                                        60.240000       0.000000
                                                        13.730000       0.000000
                                                         3.905000       0.000000
                                                         1.283000       0.859172
                                                         0.465500       0.000000
                                                         0.181100       0.000000
                                                         0.072790       0.000000

                          2       2    2s              402.000000       0.000000
                                                        60.240000       0.000000
                                                        13.730000       0.000000
                                                         3.905000       0.000000
                                                         1.283000       0.000000
                                                         0.465500       0.401652
                                                         0.181100       0.000000
                                                         0.072790       0.000000

                          2       3    3s              402.000000       0.017852
                                                        60.240000       0.033364
                                                        13.730000       0.056940
                                                         3.905000       0.088850
                                                         1.283000       0.122259
                                                         0.465500       0.132938
                                                         0.181100       0.086318
                                                         0.072790       0.017622

                          2       4    4s              402.000000       0.000000
                                                        60.240000       0.000000
                                                        13.730000       0.000000
                                                         3.905000       0.000000
                                                         1.283000       0.000000
                                                         0.465500       0.000000
                                                         0.181100       0.197856
                                                         0.072790       0.000000

                          2       5    5s              402.000000       0.000000
                                                        60.240000       0.000000
                                                        13.730000       0.000000
                                                         3.905000       0.000000
                                                         1.283000       0.000000
                                                         0.465500       0.000000
                                                         0.181100       0.000000
                                                         0.072790       0.099877

                          3       1    1px               0.074400       0.055387
                          3       1    1py               0.074400       0.055387
                          3       1    1pz               0.074400       0.055387

                          4       1    1dx2              0.156000       0.063735
                          4       1    1dxy              0.156000       0.110392
                          4       1    1dxz              0.156000       0.110392
                          4       1    1dy2              0.156000       0.063735
                          4       1    1dyz              0.156000       0.110392
                          4       1    1dz2              0.156000       0.063735

                          5       1    1px               4.516000       9.383881
                                                         1.712000       0.000000
                                                         0.649000       0.000000
                                                         0.246000       0.000000
                          5       1    1py               4.516000       9.383881
                                                         1.712000       0.000000
                                                         0.649000       0.000000
                                                         0.246000       0.000000
                          5       1    1pz               4.516000       9.383881
                                                         1.712000       0.000000
                                                         0.649000       0.000000
                                                         0.246000       0.000000

                          5       2    2px               4.516000       0.000000
                                                         1.712000       2.791385
                                                         0.649000       0.000000
                                                         0.246000       0.000000
                          5       2    2py               4.516000       0.000000
                                                         1.712000       2.791385
                                                         0.649000       0.000000
                                                         0.246000       0.000000
                          5       2    2pz               4.516000       0.000000
                                                         1.712000       2.791385
                                                         0.649000       0.000000
                                                         0.246000       0.000000

                          5       3    3px               4.516000       0.000000
                                                         1.712000       0.000000
                                                         0.649000       0.830321
                                                         0.246000       0.000000
                          5       3    3py               4.516000       0.000000
                                                         1.712000       0.000000
                                                         0.649000       0.830321
                                                         0.246000       0.000000
                          5       3    3pz               4.516000       0.000000
                                                         1.712000       0.000000
                                                         0.649000       0.830321
                                                         0.246000       0.000000

                          5       4    4px               4.516000       0.000000
                                                         1.712000       0.000000
                                                         0.649000       0.000000
                                                         0.246000       0.246950
                          5       4    4py               4.516000       0.000000
                                                         1.712000       0.000000
                                                         0.649000       0.000000
                                                         0.246000       0.246950
                          5       4    4pz               4.516000       0.000000
                                                         1.712000       0.000000
                                                         0.649000       0.000000
                                                         0.246000       0.246950

                          6       1    1fx3              0.274000       0.079964
                          6       1    1fx2y             0.274000       0.178804
                          6       1    1fx2z             0.274000       0.178804
                          6       1    1fxy2             0.274000       0.178804
                          6       1    1fxyz             0.274000       0.309698
                          6       1    1fxz2             0.274000       0.178804
                          6       1    1fy3              0.274000       0.079964
                          6       1    1fy2z             0.274000       0.178804
                          6       1    1fyz2             0.274000       0.178804
                          6       1    1fz3              0.274000       0.079964

                          7       1    1dx2              2.950000      10.929442
                                                         1.206000       0.000000
                                                         0.493000       0.000000
                          7       1    1dxy              2.950000      18.930349
                                                         1.206000       0.000000
                                                         0.493000       0.000000
                          7       1    1dxz              2.950000      18.930349
                                                         1.206000       0.000000
                                                         0.493000       0.000000
                          7       1    1dy2              2.950000      10.929442
                                                         1.206000       0.000000
                                                         0.493000       0.000000
                          7       1    1dyz              2.950000      18.930349
                                                         1.206000       0.000000
                                                         0.493000       0.000000
                          7       1    1dz2              2.950000      10.929442
                                                         1.206000       0.000000
                                                         0.493000       0.000000

                          7       2    2dx2              2.950000       0.000000
                                                         1.206000       2.284374
                                                         0.493000       0.000000
                          7       2    2dxy              2.950000       0.000000
                                                         1.206000       3.956652
                                                         0.493000       0.000000
                          7       2    2dxz              2.950000       0.000000
                                                         1.206000       3.956652
                                                         0.493000       0.000000
                          7       2    2dy2              2.950000       0.000000
                                                         1.206000       2.284374
                                                         0.493000       0.000000
                          7       2    2dyz              2.950000       0.000000
                                                         1.206000       3.956652
                                                         0.493000       0.000000
                          7       2    2dz2              2.950000       0.000000
                                                         1.206000       2.284374
                                                         0.493000       0.000000

                          7       3    3dx2              2.950000       0.000000
                                                         1.206000       0.000000
                                                         0.493000       0.477410
                          7       3    3dxy              2.950000       0.000000
                                                         1.206000       0.000000
                                                         0.493000       0.826898
                          7       3    3dxz              2.950000       0.000000
                                                         1.206000       0.000000
                                                         0.493000       0.826898
                          7       3    3dy2              2.950000       0.000000
                                                         1.206000       0.000000
                                                         0.493000       0.477410
                          7       3    3dyz              2.950000       0.000000
                                                         1.206000       0.000000
                                                         0.493000       0.826898
                          7       3    3dz2              2.950000       0.000000
                                                         1.206000       0.000000
                                                         0.493000       0.477410

                          8       1    1gx4              0.543000       0.207556
                          8       1    1gx3y             0.543000       0.549141
                          8       1    1gx3z             0.543000       0.549141
                          8       1    1gx2y2            0.543000       0.708938
                          8       1    1gx2yz            0.543000       1.227917
                          8       1    1gx2z2            0.543000       0.708938
                          8       1    1gxy3             0.543000       0.549141
                          8       1    1gxy2z            0.543000       1.227917
                          8       1    1gxyz2            0.543000       1.227917
                          8       1    1gxz3             0.543000       0.549141
                          8       1    1gy4              0.543000       0.207556
                          8       1    1gy3z             0.543000       0.549141
                          8       1    1gy2z2            0.543000       0.708938
                          8       1    1gyz3             0.543000       0.549141
                          8       1    1gz4              0.543000       0.207556

                          9       1    1fx3              2.506000      11.632200
                                                         0.875000       0.000000
                          9       1    1fx2y             2.506000      26.010389
                                                         0.875000       0.000000
                          9       1    1fx2z             2.506000      26.010389
                                                         0.875000       0.000000
                          9       1    1fxy2             2.506000      26.010389
                                                         0.875000       0.000000
                          9       1    1fxyz             2.506000      45.051316
                                                         0.875000       0.000000
                          9       1    1fxz2             2.506000      26.010389
                                                         0.875000       0.000000
                          9       1    1fy3              2.506000      11.632200
                                                         0.875000       0.000000
                          9       1    1fy2z             2.506000      26.010389
                                                         0.875000       0.000000
                          9       1    1fyz2             2.506000      26.010389
                                                         0.875000       0.000000
                          9       1    1fz3              2.506000      11.632200
                                                         0.875000       0.000000

                          9       2    2fx3              2.506000       0.000000
                                                         0.875000       1.090116
                          9       2    2fx2y             2.506000       0.000000
                                                         0.875000       2.437573
                          9       2    2fx2z             2.506000       0.000000
                                                         0.875000       2.437573
                          9       2    2fxy2             2.506000       0.000000
                                                         0.875000       2.437573
                          9       2    2fxyz             2.506000       0.000000
                                                         0.875000       4.222000
                          9       2    2fxz2             2.506000       0.000000
                                                         0.875000       2.437573
                          9       2    2fy3              2.506000       0.000000
                                                         0.875000       1.090116
                          9       2    2fy2z             2.506000       0.000000
                                                         0.875000       2.437573
                          9       2    2fyz2             2.506000       0.000000
                                                         0.875000       2.437573
                          9       2    2fz3              2.506000       0.000000
                                                         0.875000       1.090116

                         10       1    1gx4              2.358000      11.774186
                         10       1    1gx3y             2.358000      31.151567
                         10       1    1gx3z             2.358000      31.151567
                         10       1    1gx2y2            2.358000      40.216500
                         10       1    1gx2yz            2.358000      69.657021
                         10       1    1gx2z2            2.358000      40.216500
                         10       1    1gxy3             2.358000      31.151567
                         10       1    1gxy2z            2.358000      69.657021
                         10       1    1gxyz2            2.358000      69.657021
                         10       1    1gxz3             2.358000      31.151567
                         10       1    1gy4              2.358000      11.774186
                         10       1    1gy3z             2.358000      31.151567
                         10       1    1gy2z2            2.358000      40.216500
                         10       1    1gyz3             2.358000      31.151567
                         10       1    1gz4              2.358000      11.774186

     RI Auxiliary Basis Set                                    aug-cc-pV5Z-OPTRI

       Number of orbital shell sets:                                          17
       Number of orbital shells:                                              17
       Number of primitive Cartesian functions:                               17
       Number of Cartesian basis functions:                                  115
       Number of spherical basis functions:                                   81
       Norm type:                                                              2

       Normalised Cartesian orbitals:

                        Set   Shell   Orbital            Exponent    Coefficient

                          1       1    1s                0.306678       0.293712

                          2       1    1fx3              0.582788       0.436871
                          2       1    1fx2y             0.582788       0.976873
                          2       1    1fx2z             0.582788       0.976873
                          2       1    1fxy2             0.582788       0.976873
                          2       1    1fxyz             0.582788       1.691994
                          2       1    1fxz2             0.582788       0.976873
                          2       1    1fy3              0.582788       0.436871
                          2       1    1fy2z             0.582788       0.976873
                          2       1    1fyz2             0.582788       0.976873
                          2       1    1fz3              0.582788       0.436871

                          3       1    1dx2              0.740674       0.973323
                          3       1    1dxy              0.740674       1.685844
                          3       1    1dxz              0.740674       1.685844
                          3       1    1dy2              0.740674       0.973323
                          3       1    1dyz              0.740674       1.685844
                          3       1    1dz2              0.740674       0.973323

                          4       1    1s                0.854346       0.633338

                          5       1    1px               0.977704       1.385796
                          5       1    1py               0.977704       1.385796
                          5       1    1pz               0.977704       1.385796

                          6       1    1gx4              1.260673       2.104225
                          6       1    1gx3y             1.260673       5.567256
                          6       1    1gx3z             1.260673       5.567256
                          6       1    1gx2y2            1.260673       7.187297
                          6       1    1gx2yz            1.260673      12.448763
                          6       1    1gx2z2            1.260673       7.187297
                          6       1    1gxy3             1.260673       5.567256
                          6       1    1gxy2z            1.260673      12.448763
                          6       1    1gxyz2            1.260673      12.448763
                          6       1    1gxz3             1.260673       5.567256
                          6       1    1gy4              1.260673       2.104225
                          6       1    1gy3z             1.260673       5.567256
                          6       1    1gy2z2            1.260673       7.187297
                          6       1    1gyz3             1.260673       5.567256
                          6       1    1gz4              1.260673       2.104225

                          7       1    1fx3              1.313322       2.718252
                          7       1    1fx2y             1.313322       6.078196
                          7       1    1fx2z             1.313322       6.078196
                          7       1    1fxy2             1.313322       6.078196
                          7       1    1fxyz             1.313322      10.527744
                          7       1    1fxz2             1.313322       6.078196
                          7       1    1fy3              1.313322       2.718252
                          7       1    1fy2z             1.313322       6.078196
                          7       1    1fyz2             1.313322       6.078196
                          7       1    1fz3              1.313322       2.718252

                          8       1    1dx2              1.868623       4.915553
                          8       1    1dxy              1.868623       8.513988
                          8       1    1dxz              1.868623       8.513988
                          8       1    1dy2              1.868623       4.915553
                          8       1    1dyz              1.868623       8.513988
                          8       1    1dz2              1.868623       4.915553

                          9       1    1s                2.242991       1.306263

                         10       1    1hx5              2.510965      14.785170
                         10       1    1hx4y             2.510965      44.355509
                         10       1    1hx4z             2.510965      44.355509
                         10       1    1hx3y2            2.510965      67.754159
                         10       1    1hx3yz            2.510965     117.353645
                         10       1    1hx3z2            2.510965      67.754159
                         10       1    1hx2y3            2.510965      67.754159
                         10       1    1hx2y2z           2.510965     151.502904
                         10       1    1hx2yz2           2.510965     151.502904
                         10       1    1hx2z3            2.510965      67.754159
                         10       1    1hxy4             2.510965      44.355509
                         10       1    1hxy3z            2.510965     117.353645
                         10       1    1hxy2z2           2.510965     151.502904
                         10       1    1hxyz3            2.510965     117.353645
                         10       1    1hxz4             2.510965      44.355509
                         10       1    1hy5              2.510965      14.785170
                         10       1    1hy4z             2.510965      44.355509
                         10       1    1hy3z2            2.510965      67.754159
                         10       1    1hy2z3            2.510965      67.754159
                         10       1    1hyz4             2.510965      44.355509
                         10       1    1hz5              2.510965      14.785170

                         11       1    1px               2.624145       4.760744
                         11       1    1py               2.624145       4.760744
                         11       1    1pz               2.624145       4.760744

                         12       1    1gx4              3.525409      35.584558
                         12       1    1gx3y             3.525409      94.147891
                         12       1    1gx3z             3.525409      94.147891
                         12       1    1gx2y2            3.525409     121.544404
                         12       1    1gx2yz            3.525409     210.521084
                         12       1    1gx2z2            3.525409     121.544404
                         12       1    1gxy3             3.525409      94.147891
                         12       1    1gxy2z            3.525409     210.521084
                         12       1    1gxyz2            3.525409     210.521084
                         12       1    1gxz3             3.525409      94.147891
                         12       1    1gy4              3.525409      35.584558
                         12       1    1gy3z             3.525409      94.147891
                         12       1    1gy2z2            3.525409     121.544404
                         12       1    1gyz3             3.525409      94.147891
                         12       1    1gz4              3.525409      35.584558

                         13       1    1fx3              3.758818      28.961421
                         13       1    1fx2y             3.758818      64.759707
                         13       1    1fx2z             3.758818      64.759707
                         13       1    1fxy2             3.758818      64.759707
                         13       1    1fxyz             3.758818     112.167102
                         13       1    1fxz2             3.758818      64.759707
                         13       1    1fy3              3.758818      28.961421
                         13       1    1fy2z             3.758818      64.759707
                         13       1    1fyz2             3.758818      64.759707
                         13       1    1fz3              3.758818      28.961421

                         14       1    1dx2              4.580832      23.608158
                         14       1    1dxy              4.580832      40.890528
                         14       1    1dxz              4.580832      40.890528
                         14       1    1dy2              4.580832      23.608158
                         14       1    1dyz              4.580832      40.890528
                         14       1    1dz2              4.580832      23.608158

                         15       1    1px               6.794656      15.636856
                         15       1    1py               6.794656      15.636856
                         15       1    1pz               6.794656      15.636856

                         16       1    1s                7.257089       3.151243

                         17       1    1px              22.632735      70.365761
                         17       1    1py              22.632735      70.365761
                         17       1    1pz              22.632735      70.365761

       Atomic covalent radius [Angstrom]:                                  0.320

       Atomic van der Waals radius [Angstrom]:                             1.090

     The atoms of this atomic kind are PAW atoms (GAPW):
       Hard Gaussian function radius:                                      1.200
       Rho0 radius:                                                        1.200
       Maximum GTO radius used for PAW projector construction:            24.566

     GAPW Soft Basis Set                                        aug-cc-pV5Z_soft

       Number of orbital shell sets:                                          10
       Number of orbital shells:                                              20
       Number of primitive Cartesian functions:                               20
       Number of Cartesian basis functions:                                  105
       Number of spherical basis functions:                                   80
       Norm type:                                                              2

       Normalised Cartesian orbitals:

                        Set   Shell   Orbital            Exponent    Coefficient

                          1       1    1s                0.020700       0.038894

                          2       1    1s                3.905000       0.000000
                                                         1.283000       0.859172
                                                         0.465500       0.000000
                                                         0.181100       0.000000
                                                         0.072790       0.000000

                          2       2    2s                3.905000       0.000000
                                                         1.283000       0.000000
                                                         0.465500       0.401652
                                                         0.181100       0.000000
                                                         0.072790       0.000000

                          2       3    3s                3.905000       0.088850
                                                         1.283000       0.122259
                                                         0.465500       0.132938
                                                         0.181100       0.086318
                                                         0.072790       0.017622

                          2       4    4s                3.905000       0.000000
                                                         1.283000       0.000000
                                                         0.465500       0.000000
                                                         0.181100       0.197856
                                                         0.072790       0.000000

                          2       5    5s                3.905000       0.000000
                                                         1.283000       0.000000
                                                         0.465500       0.000000
                                                         0.181100       0.000000
                                                         0.072790       0.099877

                          3       1    1px               0.074400       0.055387
                          3       1    1py               0.074400       0.055387
                          3       1    1pz               0.074400       0.055387

                          4       1    1dx2              0.156000       0.063735
                          4       1    1dxy              0.156000       0.110392
                          4       1    1dxz              0.156000       0.110392
                          4       1    1dy2              0.156000       0.063735
                          4       1    1dyz              0.156000       0.110392
                          4       1    1dz2              0.156000       0.063735

                          5       1    1px               4.516000       9.383881
                                                         1.712000       0.000000
                                                         0.649000       0.000000
                                                         0.246000       0.000000
                          5       1    1py               4.516000       9.383881
                                                         1.712000       0.000000
                                                         0.649000       0.000000
                                                         0.246000       0.000000
                          5       1    1pz               4.516000       9.383881
                                                         1.712000       0.000000
                                                         0.649000       0.000000
                                                         0.246000       0.000000

                          5       2    2px               4.516000       0.000000
                                                         1.712000       2.791385
                                                         0.649000       0.000000
                                                         0.246000       0.000000
                          5       2    2py               4.516000       0.000000
                                                         1.712000       2.791385
                                                         0.649000       0.000000
                                                         0.246000       0.000000
                          5       2    2pz               4.516000       0.000000
                                                         1.712000       2.791385
                                                         0.649000       0.000000
                                                         0.246000       0.000000

                          5       3    3px               4.516000       0.000000
                                                         1.712000       0.000000
                                                         0.649000       0.830321
                                                         0.246000       0.000000
                          5       3    3py               4.516000       0.000000
                                                         1.712000       0.000000
                                                         0.649000       0.830321
                                                         0.246000       0.000000
                          5       3    3pz               4.516000       0.000000
                                                         1.712000       0.000000
                                                         0.649000       0.830321
                                                         0.246000       0.000000

                          5       4    4px               4.516000       0.000000
                                                         1.712000       0.000000
                                                         0.649000       0.000000
                                                         0.246000       0.246950
                          5       4    4py               4.516000       0.000000
                                                         1.712000       0.000000
                                                         0.649000       0.000000
                                                         0.246000       0.246950
                          5       4    4pz               4.516000       0.000000
                                                         1.712000       0.000000
                                                         0.649000       0.000000
                                                         0.246000       0.246950

                          6       1    1fx3              0.274000       0.079964
                          6       1    1fx2y             0.274000       0.178804
                          6       1    1fx2z             0.274000       0.178804
                          6       1    1fxy2             0.274000       0.178804
                          6       1    1fxyz             0.274000       0.309698
                          6       1    1fxz2             0.274000       0.178804
                          6       1    1fy3              0.274000       0.079964
                          6       1    1fy2z             0.274000       0.178804
                          6       1    1fyz2             0.274000       0.178804
                          6       1    1fz3              0.274000       0.079964

                          7       1    1dx2              2.950000      10.929442
                                                         1.206000       0.000000
                                                         0.493000       0.000000
                          7       1    1dxy              2.950000      18.930349
                                                         1.206000       0.000000
                                                         0.493000       0.000000
                          7       1    1dxz              2.950000      18.930349
                                                         1.206000       0.000000
                                                         0.493000       0.000000
                          7       1    1dy2              2.950000      10.929442
                                                         1.206000       0.000000
                                                         0.493000       0.000000
                          7       1    1dyz              2.950000      18.930349
                                                         1.206000       0.000000
                                                         0.493000       0.000000
                          7       1    1dz2              2.950000      10.929442
                                                         1.206000       0.000000
                                                         0.493000       0.000000

                          7       2    2dx2              2.950000       0.000000
                                                         1.206000       2.284374
                                                         0.493000       0.000000
                          7       2    2dxy              2.950000       0.000000
                                                         1.206000       3.956652
                                                         0.493000       0.000000
                          7       2    2dxz              2.950000       0.000000
                                                         1.206000       3.956652
                                                         0.493000       0.000000
                          7       2    2dy2              2.950000       0.000000
                                                         1.206000       2.284374
                                                         0.493000       0.000000
                          7       2    2dyz              2.950000       0.000000
                                                         1.206000       3.956652
                                                         0.493000       0.000000
                          7       2    2dz2              2.950000       0.000000
                                                         1.206000       2.284374
                                                         0.493000       0.000000

                          7       3    3dx2              2.950000       0.000000
                                                         1.206000       0.000000
                                                         0.493000       0.477410
                          7       3    3dxy              2.950000       0.000000
                                                         1.206000       0.000000
                                                         0.493000       0.826898
                          7       3    3dxz              2.950000       0.000000
                                                         1.206000       0.000000
                                                         0.493000       0.826898
                          7       3    3dy2              2.950000       0.000000
                                                         1.206000       0.000000
                                                         0.493000       0.477410
                          7       3    3dyz              2.950000       0.000000
                                                         1.206000       0.000000
                                                         0.493000       0.826898
                          7       3    3dz2              2.950000       0.000000
                                                         1.206000       0.000000
                                                         0.493000       0.477410

                          8       1    1gx4              0.543000       0.207556
                          8       1    1gx3y             0.543000       0.549141
                          8       1    1gx3z             0.543000       0.549141
                          8       1    1gx2y2            0.543000       0.708938
                          8       1    1gx2yz            0.543000       1.227917
                          8       1    1gx2z2            0.543000       0.708938
                          8       1    1gxy3             0.543000       0.549141
                          8       1    1gxy2z            0.543000       1.227917
                          8       1    1gxyz2            0.543000       1.227917
                          8       1    1gxz3             0.543000       0.549141
                          8       1    1gy4              0.543000       0.207556
                          8       1    1gy3z             0.543000       0.549141
                          8       1    1gy2z2            0.543000       0.708938
                          8       1    1gyz3             0.543000       0.549141
                          8       1    1gz4              0.543000       0.207556

                          9       1    1fx3              2.506000      11.632200
                                                         0.875000       0.000000
                          9       1    1fx2y             2.506000      26.010389
                                                         0.875000       0.000000
                          9       1    1fx2z             2.506000      26.010389
                                                         0.875000       0.000000
                          9       1    1fxy2             2.506000      26.010389
                                                         0.875000       0.000000
                          9       1    1fxyz             2.506000      45.051316
                                                         0.875000       0.000000
                          9       1    1fxz2             2.506000      26.010389
                                                         0.875000       0.000000
                          9       1    1fy3              2.506000      11.632200
                                                         0.875000       0.000000
                          9       1    1fy2z             2.506000      26.010389
                                                         0.875000       0.000000
                          9       1    1fyz2             2.506000      26.010389
                                                         0.875000       0.000000
                          9       1    1fz3              2.506000      11.632200
                                                         0.875000       0.000000

                          9       2    2fx3              2.506000       0.000000
                                                         0.875000       1.090116
                          9       2    2fx2y             2.506000       0.000000
                                                         0.875000       2.437573
                          9       2    2fx2z             2.506000       0.000000
                                                         0.875000       2.437573
                          9       2    2fxy2             2.506000       0.000000
                                                         0.875000       2.437573
                          9       2    2fxyz             2.506000       0.000000
                                                         0.875000       4.222000
                          9       2    2fxz2             2.506000       0.000000
                                                         0.875000       2.437573
                          9       2    2fy3              2.506000       0.000000
                                                         0.875000       1.090116
                          9       2    2fy2z             2.506000       0.000000
                                                         0.875000       2.437573
                          9       2    2fyz2             2.506000       0.000000
                                                         0.875000       2.437573
                          9       2    2fz3              2.506000       0.000000
                                                         0.875000       1.090116

                         10       1    1gx4              2.358000      11.774186
                         10       1    1gx3y             2.358000      31.151567
                         10       1    1gx3z             2.358000      31.151567
                         10       1    1gx2y2            2.358000      40.216500
                         10       1    1gx2yz            2.358000      69.657021
                         10       1    1gx2z2            2.358000      40.216500
                         10       1    1gxy3             2.358000      31.151567
                         10       1    1gxy2z            2.358000      69.657021
                         10       1    1gxyz2            2.358000      69.657021
                         10       1    1gxz3             2.358000      31.151567
                         10       1    1gy4              2.358000      11.774186
                         10       1    1gy3z             2.358000      31.151567
                         10       1    1gy2z2            2.358000      40.216500
                         10       1    1gyz3             2.358000      31.151567
                         10       1    1gz4              2.358000      11.774186

     AE Potential information for                                            ALL

       Description:                                       All-electron potential
                                          Krack, Parrinello, PCCP 2, 2105 (2000)

       Gaussian exponent of the core charge distribution:              12.500000
       Electronic configuration (s p d ...):                           1   0   0

  2. Atomic kind: O                                     Number of atoms:       3

     Orbital Basis Set                                               aug-cc-pV5Z

       Number of orbital shell sets:                                          12
       Number of orbital shells:                                              27
       Number of primitive Cartesian functions:                               38
       Number of Cartesian basis functions:                                  182
       Number of spherical basis functions:                                  127
       Norm type:                                                              2

       Normalised Cartesian orbitals:

                        Set   Shell   Orbital            Exponent    Coefficient

                          1       1    1px               0.044600       0.029215
                          1       1    1py               0.044600       0.029215
                          1       1    1pz               0.044600       0.029215

                          2       1    1s                0.065500       0.092276

                          3       1    1px             195.500000       0.000000
                                                        46.160000       0.000000
                                                        14.580000       0.000000
                                                         5.296000       0.000000
                                                         2.094000       3.590550
                                                         0.847100       0.000000
                                                         0.336800       0.000000
                                                         0.128500       0.000000
                          3       1    1py             195.500000       0.000000
                                                        46.160000       0.000000
                                                        14.580000       0.000000
                                                         5.296000       0.000000
                                                         2.094000       3.590550
                                                         0.847100       0.000000
                                                         0.336800       0.000000
                                                         0.128500       0.000000
                          3       1    1pz             195.500000       0.000000
                                                        46.160000       0.000000
                                                        14.580000       0.000000
                                                         5.296000       0.000000
                                                         2.094000       3.590550
                                                         0.847100       0.000000
                                                         0.336800       0.000000
                                                         0.128500       0.000000

                          3       2    2px             195.500000       0.000000
                                                        46.160000       0.000000
                                                        14.580000       0.000000
                                                         5.296000       0.000000
                                                         2.094000       0.000000
                                                         0.847100       1.158400
                                                         0.336800       0.000000
                                                         0.128500       0.000000
                          3       2    2py             195.500000       0.000000
                                                        46.160000       0.000000
                                                        14.580000       0.000000
                                                         5.296000       0.000000
                                                         2.094000       0.000000
                                                         0.847100       1.158400
                                                         0.336800       0.000000
                                                         0.128500       0.000000
                          3       2    2pz             195.500000       0.000000
                                                        46.160000       0.000000
                                                        14.580000       0.000000
                                                         5.296000       0.000000
                                                         2.094000       0.000000
                                                         0.847100       1.158400
                                                         0.336800       0.000000
                                                         0.128500       0.000000

                          3       3    3px             195.500000       0.956569
                                                        46.160000       1.267066
                                                        14.580000       1.419658
                                                         5.296000       1.321897
                                                         2.094000       0.922064
                                                         0.847100       0.433170
                                                         0.336800       0.125607
                                                         0.128500       0.014224
                          3       3    3py             195.500000       0.956569
                                                        46.160000       1.267066
                                                        14.580000       1.419658
                                                         5.296000       1.321897
                                                         2.094000       0.922064
                                                         0.847100       0.433170
                                                         0.336800       0.125607
                                                         0.128500       0.014224
                          3       3    3pz             195.500000       0.956569
                                                        46.160000       1.267066
                                                        14.580000       1.419658
                                                         5.296000       1.321897
                                                         2.094000       0.922064
                                                         0.847100       0.433170
                                                         0.336800       0.125607
                                                         0.128500       0.014224

                          3       4    4px             195.500000       0.000000
                                                        46.160000       0.000000
                                                        14.580000       0.000000
                                                         5.296000       0.000000
                                                         2.094000       0.000000
                                                         0.847100       0.000000
                                                         0.336800       0.365725
                                                         0.128500       0.000000
                          3       4    4py             195.500000       0.000000
                                                        46.160000       0.000000
                                                        14.580000       0.000000
                                                         5.296000       0.000000
                                                         2.094000       0.000000
                                                         0.847100       0.000000
                                                         0.336800       0.365725
                                                         0.128500       0.000000
                          3       4    4pz             195.500000       0.000000
                                                        46.160000       0.000000
                                                        14.580000       0.000000
                                                         5.296000       0.000000
                                                         2.094000       0.000000
                                                         0.847100       0.000000
                                                         0.336800       0.365725
                                                         0.128500       0.000000

                          3       5    5px             195.500000       0.000000
                                                        46.160000       0.000000
                                                        14.580000       0.000000
                                                         5.296000       0.000000
                                                         2.094000       0.000000
                                                         0.847100       0.000000
                                                         0.336800       0.000000
                                                         0.128500       0.109665
                          3       5    5py             195.500000       0.000000
                                                        46.160000       0.000000
                                                        14.580000       0.000000
                                                         5.296000       0.000000
                                                         2.094000       0.000000
                                                         0.847100       0.000000
                                                         0.336800       0.000000
                                                         0.128500       0.109665
                          3       5    5pz             195.500000       0.000000
                                                        46.160000       0.000000
                                                        14.580000       0.000000
                                                         5.296000       0.000000
                                                         2.094000       0.000000
                                                         0.847100       0.000000
                                                         0.336800       0.000000
                                                         0.128500       0.109665

                          4       1    1dx2              0.131000       0.046950
                          4       1    1dxy              0.131000       0.081320
                          4       1    1dxz              0.131000       0.081320
                          4       1    1dy2              0.131000       0.046950
                          4       1    1dyz              0.131000       0.081320
                          4       1    1dz2              0.131000       0.046950

                          5       1    1s           164200.000000       0.151152
                                                     24590.000000       0.286901
                                                      5592.000000       0.495904
                                                      1582.000000       0.808436
                                                       516.100000       1.243088
                                                       187.200000       1.770469
                                                        73.930000       2.243564
                                                        31.220000       2.369157
                                                        13.810000       1.850408
                                                         6.256000       0.786713
                                                         2.776000       0.097410
                                                         1.138000       0.000835
                                                         0.460000       0.000455
                                                         0.182900      -0.000008

                          5       2    2s           164200.000000       0.000000
                                                     24590.000000       0.000000
                                                      5592.000000       0.000000
                                                      1582.000000       0.000000
                                                       516.100000       0.000000
                                                       187.200000       0.000000
                                                        73.930000       0.000000
                                                        31.220000       0.000000
                                                        13.810000       0.000000
                                                         6.256000       0.000000
                                                         2.776000       1.532762
                                                         1.138000       0.000000
                                                         0.460000       0.000000
                                                         0.182900       0.000000

                          5       3    3s           164200.000000       0.000000
                                                     24590.000000       0.000000
                                                      5592.000000       0.000000
                                                      1582.000000       0.000000
                                                       516.100000       0.000000
                                                       187.200000       0.000000
                                                        73.930000       0.000000
                                                        31.220000       0.000000
                                                        13.810000       0.000000
                                                         6.256000       0.000000
                                                         2.776000       0.000000
                                                         1.138000       0.785266
                                                         0.460000       0.000000
                                                         0.182900       0.000000

                          5       4    4s           164200.000000      -0.034881
                                                     24590.000000      -0.064378
                                                      5592.000000      -0.112454
                                                      1582.000000      -0.184320
                                                       516.100000      -0.284611
                                                       187.200000      -0.415303
                                                        73.930000      -0.546888
                                                        31.220000      -0.641477
                                                        13.810000      -0.614563
[...]
 mp2_eri_3c_integrate                 1  7.0    0.026    0.061    7.538   37.220
 integrate_set_3c                 37230  8.0    6.751   34.630    7.511   37.168
 dbt_contract                         4  9.0    0.001    0.002   36.834   36.870
 dbt_tas_multiply                     8 11.5    0.000    0.000   32.274   32.275
 dbt_tas_total                        8 12.5    0.003    0.011   32.273   32.273
 dbt_tas_dbm                          8 13.5    0.000    0.000   29.937   29.937
 mp_waitany                       13152 11.5   24.929   29.597   24.929   29.597
 dbm_multiply                         8 15.5   25.748   28.345   25.748   28.345
 dbt_tas_mm_1N                        6 14.5    0.000    0.000   25.661   28.246
 qs_rho_update_rho_low               84  5.0    0.002    0.009   25.123   25.130
 integrate_four_center_getP          84 10.0    0.338    0.383   25.101   25.126
 calculate_rho_elec                  84  6.0    0.018    0.020   23.804   23.810
 integrate_four_center_dist_KS       84 10.0    0.165    0.207   23.728   23.738
 sum_up_and_integrate                84  8.0    0.002    0.008   10.136   21.699
 integrate_v_rspace                  84  9.0    0.002    0.002   10.130   21.694
 qs_scf_new_mos                      83  5.0    0.002    0.014   21.122   21.333
 transfer_pw2rs                     421 10.6    0.005    0.006   18.984   20.244
 density_rs2pw                       84  7.0    0.003    0.003   16.879   19.915
 integrate_vhg0_rspace               84  8.0    1.875    2.917   18.546   19.507
 eigensolver_symm                    84  6.0    0.005    0.007   18.045   18.260
 pw_poisson_solve                    84  8.0    0.138    0.151   17.320   17.343
 transfer_rs2pw                     421  8.4    0.007    0.010   14.285   17.328
 mp_alltoall_d11v                  1464  9.4    3.475   15.802    3.475   15.802
 grid_collocate_task_list            84  7.0    6.679   15.488    6.679   15.488
 transfer_pw2rs_250                 169 11.0    0.439    0.535   13.892   15.186
 prepare_gapw_den                    84  8.0    0.002    0.002   14.854   14.935
 mp_sum_d                         16643  6.9   12.033   13.550   12.033   13.550
 fft_wrap_pw1pw2                   1755  9.9    0.013    0.017   12.909   13.407
 ps_wavelet_solve                    84  9.0    0.957    2.760   12.597   13.391
 grid_integrate_task_list            84 10.0    0.125   12.315    0.125   12.315
 cp_fm_redistribute_end              89  8.0    6.286   12.225    6.325   12.258
 rs_gather_matrices                  84 10.0    0.002    0.101    0.786   12.163
 transfer_rs2pw_250                 169 10.0    0.504    0.605    5.650   12.005
 calculate_rho_atom                 252  9.0    2.471   10.196    2.471   10.197
 mp_sum_dv                        94502 11.6    8.351    9.898    8.351    9.898
 transfer_rs2pw_90                   84  9.0    0.142    0.199    6.497    9.703
 potential_pw2rs                     84 10.0    0.002    0.003    9.216    9.253
 fft_wrap_pw1pw2_250               1251 11.1    0.069    0.080    8.268    8.860
 fft3d_pb                          1251 12.1    0.375    0.489    7.976    8.557
 mp_alltoall_z22v                  3006 14.0    7.571    8.171    7.571    8.171
 calculate_vxc_atom                  84  8.0    0.028    0.286    7.528    7.530
 rpa_num_int_RPA_matrix_operati     100  7.0    0.001    0.003    7.520    7.523
 gaVxcgb_GC                          83  9.0    0.064    7.154    0.064    7.154
 mp_alltoall_d54                     84 10.0    6.060    7.100    6.060    7.100
 dbt_tas_estimate_result_nze          4 12.0    0.031    0.039    7.094    7.095
 powell_optimize                3694314 11.0    5.340    7.044    5.340    7.044
 cp_fm_syrk                           2  8.5    6.648    6.676    6.648    6.676
 calc_mat_Q                         100  8.0    0.000    0.000    6.558    6.587
 contract_S_to_Q                    100  9.0    0.001    0.001    6.550    6.578
 mp_sum_l                           954  6.1    3.712    6.550    3.712    6.550
 integrate_four_center_load          84 10.0    0.000    0.013    3.579    6.401
 hfx_load_balance                     1 11.0    0.002    0.008    3.579    6.401
 hfx_load_balance_range               1 12.0    0.000    0.011    3.390    6.211
 mp_alltoall_d45                     85 10.0    5.700    6.186    5.700    6.186
 mp_sum_dm                         4372  7.7    5.265    5.800    5.265    5.800
 dbt_copy                            12 10.1    0.001    0.001    4.909    5.056
 create_A                             1  8.0    0.031    0.046    4.964    5.017
 fft3d_ps                           504 11.5    0.024    0.065    4.614    4.808
 dbt_reshape                          8 11.6    0.219    0.240    4.405    4.501
 qs_energies_init_hamiltonians        1  3.0    0.002    0.006    4.281    4.282
 build_core_hamiltonian_matrix        1  4.0    0.002    0.008    4.219    4.221
 overlap_condnum                      1  5.0    0.002    0.006    4.178    4.220
 qs_vxc_create                       84  8.0    0.002    0.003    4.166    4.167
 xc_vxc_pw_create                    83  9.0    0.022    0.024    4.164    4.166
 dbt_communicate_buffer               8 12.6    0.004    0.004    4.043    4.130
 arnoldi_conjugate_gradient           5  6.0    0.031    0.044    3.844    3.844
 mp_waitall_2                        54 15.6    2.918    3.739    2.918    3.739
 mp_isend_dv                      31440 12.4    1.875    3.467    1.875    3.467
 xc_pw_derive                       498 11.0    0.001    0.001    3.207    3.397
 calc_pair_dist_radii                 1 10.0    1.010    1.144    3.006    3.357
 calculate_rho0_atom                252  9.0    3.021    3.290    3.021    3.290
 cube_transpose_3                   666 12.7    0.054    0.093    2.636    3.193
 cube_transpose_4                   585 13.6    0.051    0.063    2.499    3.058
 dbcsr_multiply_generic             104  8.1    0.004    0.005    2.295    2.779
 abc_contract                     37230  9.0    0.761    2.594    0.761    2.594
 transfer_pw2rs_30                   84 12.0    0.442    0.530    2.420    2.584
 dbt_remap                            8 10.0    0.005    0.008    2.582    2.582
 mp_rank_compare                    504 12.5    2.435    2.571    2.435    2.571
 calculate_dm_sparse                 83  6.0    0.000    0.001    2.116    2.472
 cp_dbcsr_plus_fm_fm_t               83  7.0    0.001    0.001    2.115    2.471
 compute_vec_Sigma_x_minus_vxc_       1  4.0    0.002    0.008    2.402    2.405
 put_rho0_on_grid                    84  9.0    0.029    0.047    2.196    2.274
 xc_pw_divergence                    83 10.0    0.001    0.001    2.097    2.205
 dbcsr_sym_matrix_vector_mult     10015  7.0    0.071    0.082    1.137    2.165
 transfer_pw2rs_90                   84 12.0    0.141    0.185    1.887    2.126
 mp_alltoall_i22                    376  9.1    1.788    2.048    1.788    2.048
 xc_rho_set_and_dset_create          83 10.0    0.018    0.034    1.842    1.989
 cube_transpose_2                   837 12.8    0.054    0.068    1.215    1.976
 cube_transpose_1                   918 13.1    0.043    0.094    1.425    1.959
 create_B                             1  8.0    0.000    0.000    1.653    1.921
 multiply_cannon                    104  9.1    0.018    0.055    1.519    1.913
 cp2k_distribution_to_z_slices       84  9.0    0.133    0.160    1.632    1.884
 fft_wrap_pw1pw2_90                 168 10.5    0.003    0.010    1.685    1.876
 transfer_rs2pw_30                   84  9.0    0.482    0.624    1.693    1.832
 create_integ_mat                     4  6.0    0.012    0.017    1.634    1.728
 update_ks_atom                      84  8.0    0.084    0.956    0.830    1.698
 fft_wrap_pw1pw2_30                 168 10.5    0.001    0.006    1.662    1.687
 array2fm                             4  7.0    0.000    0.000    1.528    1.679
 mp_sendrecv_dv                  214872 10.0    1.510    1.665    1.510    1.665
 postprocess_bse                      1  9.0    0.000    0.000    1.586    1.642
 dbcsr_rep_row_to_rep_col_vec     10015  8.0    0.026    0.045    0.545    1.628
 cp_fm_redistribute_start            89  8.0    0.519    0.542    1.220    1.620
 multiply_cannon_loop               104 10.1    0.018    0.029    1.151    1.539
 dbcsr_complete_redistribute        272  8.4    0.060    0.096    1.249    1.522
 copy_dbcsr_to_fm                   102  6.3    0.002    0.004    1.373    1.486
 fm_general_add_bse                   5 10.2    0.000    0.000    1.235    1.405
 calculate_rho_atom_coeff            84  6.0    0.133    0.689    1.317    1.320
 fft_wrap_pw1pw2_10                 168 10.5    0.001    0.004    1.282    1.317
 gspace_mixing                       82  5.0    0.017    0.019    1.305    1.308
 cp_fm_to_fm_submat_general         112 10.1    1.055    1.300    1.055    1.300
 multiply_cannon_multrec           7056 11.1    0.613    1.172    0.615    1.174
 cp_fm_uplo_to_full                 192  8.3    0.880    1.171    0.880    1.171
 get_oscillator_strengths             1 10.0    0.001    0.001    1.157    1.158
 copy_fm_to_dbcsr                   170  8.1    0.000    0.000    0.900    1.134
 xz_to_yz                           252 11.0    0.019    0.052    1.031    1.100
 dbcsr_desymmetrize_deep            104  7.2    0.015    0.031    1.010    1.091
 array2fm_fill                        4  8.0    0.097    0.132    0.597    1.087
 dbt_tas_replicate                    8 13.5    0.348    0.604    0.945    1.041
 cp_fm_cholesky_invert              101  8.0    1.018    1.031    1.018    1.031
 yz_to_xz                           252 14.0    0.027    0.054    0.906    1.031
 cp_fm_symm                          84  7.0    0.998    1.027    0.998    1.027
 mp_wait                            447  9.0    0.500    0.975    0.500    0.975
 Vh_1c_gg_integrals                  84  8.0    0.014    0.602    0.756    0.927
 create_qs_kind_set                   1  2.0    0.000    0.001    0.890    0.914
 read_qs_kind                         3  3.0    0.347    0.420    0.890    0.914
 fm_general_add_bse_5_comm_buff       5 11.2    0.000    0.000    0.754    0.907
 communicate_buffer                   5 12.2    0.002    0.002    0.754    0.907
 cp_fm_cholesky_decompose           102  9.0    0.772    0.897    0.772    0.897
 array2fm_isendrecv                   4  8.0    0.006    0.011    0.454    0.865
 transfer_pw2rs_10                   84 12.0    0.168    0.191    0.779    0.858
 mp_bcast_dm                       2856  9.0    0.746    0.781    0.746    0.781
 rs_grid_zero                       422 11.2    0.674    0.773    0.674    0.773
 compute_Erpa_by_freq_int           100  8.0    0.002    0.017    0.744    0.748
 init_scf_run                         1  3.0    0.003    0.008    0.680    0.680
 make_m2s                           208  9.1    0.005    0.012    0.517    0.667
 make_images                        208 10.1    0.067    0.106    0.488    0.639
 multiply_cannon_metrocomm3        7056 11.1    0.010    0.012    0.324    0.638
 dbt_split_blocks_generic            20  8.8    0.226    0.279    0.617    0.637
 dbm_reserve_blocks                  73 14.2    0.525    0.582    0.525    0.582
 parser_read_line                140357  4.0    0.022    0.026    0.542    0.573
 mp_isend_dm3                      5056 11.5    0.250    0.571    0.250    0.571
 ao_to_mo_and_store_B_mult_gw_1       2  7.0    0.000    0.000    0.403    0.559
 broyden_mixing                      82  6.0    0.450    0.518    0.528    0.559
 dbt_nd_mp_comm                       8 11.0    0.000    0.000    0.109    0.552
 parser_read_line_low               155  5.0    0.009    0.095    0.521    0.552
 broadcast_input_information        155  6.0    0.042    0.046    0.511    0.544
 ao_to_mo_and_store_B_mult_bse_       2  7.0    0.000    0.000    0.387    0.541
 mp_max_i                           612  3.0    0.325    0.533    0.325    0.533
 scf_env_initial_rho_setup            1  4.0    0.001    0.002    0.522    0.525
 dbcsr_col_vec_to_rep_row         10015  8.0    0.033    0.049    0.186    0.517
 dbcsr_sym_matrix_vector_mult_l   10015  8.0    0.028    0.503    0.042    0.516
 dbm_redistribute                    15 13.3    0.455    0.509    0.455    0.509
 rs_scatter_matrices                 84  7.0    0.001    0.016    0.020    0.505
 mp_alltoall_i                       43 13.8    0.351    0.503    0.351    0.503
 array2fm_waitall                     4  8.0    0.000    0.000    0.053    0.502
 multiply_cannon_metrocomm1        7056 11.1    0.003    0.003    0.140    0.485
 mp_isendrecv_dv                 429744 12.0    0.322    0.473    0.322    0.473
 transfer_rs2pw_10                   84  9.0    0.140    0.157    0.438    0.467
 self_consistency_check              83  5.0    0.000    0.000    0.242    0.451
 cp_sm_mix                           83  6.0    0.000    0.003    0.242    0.450
 mp_max_d                            85  6.9    0.241    0.450    0.241    0.450
 dbt_tas_reserve_blocks_index        65 13.2    0.013    0.015    0.385    0.446
 convert_to_new_pgrid                24 13.5    0.037    0.131    0.354    0.442
 mp_sum_iv                          318  9.4    0.181    0.440    0.181    0.440
 mp_bcast_i_src                     620  7.0    0.366    0.427    0.366    0.427
 get_multipoles_mo                    1 10.0    0.002    0.004    0.355    0.411
 dbt_distribution_new_expert         76 10.1    0.002    0.003    0.357    0.405
 mp_bcast_b_src                     173  7.0    0.129    0.397    0.129    0.397
 mult_B_with_W                        1  8.0    0.000    0.000    0.267    0.388
 dbt_tas_reshape                     11 13.6    0.001    0.002    0.321    0.366
 mp_allgather_i34                   104 10.1    0.345    0.359    0.345    0.359
 mp_bcast_am_src                    155  7.0    0.096    0.339    0.100    0.341
 hybrid_alltoall_any                312 10.8    0.148    0.212    0.204    0.335
 dbt_split_copyback                   4 10.0    0.226    0.286    0.270    0.330
 array2fm_info                        4  8.0    0.234    0.326    0.241    0.329
 dbt_tas_communicate_buffer          19 15.6    0.003    0.005    0.212    0.327
 dbcsr_add_d                      15091  7.0    0.006    0.008    0.043    0.325
 dbcsr_add_anytype                15091  8.0    0.007    0.048    0.036    0.317
 qs_init_subsys                       1  2.0    0.016    0.039    0.313    0.313
 truncate_BSE_matrices                1  8.0    0.000    0.000    0.166    0.307
 xc_functional_eval                 249 11.0    0.000    0.002    0.181    0.303
 pbe_lda_eval                       249 12.0    0.181    0.303    0.181    0.303
 dbt_reserve_blocks_index            36 10.8    0.014    0.017    0.253    0.302
 mp_bcast_dv                      10102  9.0    0.107    0.291    0.107    0.291
 dbt_tas_replicate_communicate_       6 14.5    0.000    0.001    0.181    0.291
 pw_poisson_rebuild                  84  9.0    0.000    0.000    0.268    0.290
 ps_wavelet_create                    1 10.0    0.000    0.000    0.268    0.290
 RS_z_slice_distribution              1 11.0    0.134    0.254    0.268    0.290
 allocate_matrices_gw                 1  7.0    0.003    0.006    0.102    0.289
 dbt_reserve_blocks_index_array      28 10.6    0.000    0.000    0.241    0.289
 make_images_data                   208 11.1    0.003    0.004    0.159    0.275
 get_vec_sigma_x                      1  8.0    0.000    0.000    0.092    0.275
 array2fm_buffer_send                 4  8.0    0.161    0.263    0.161    0.263
 dbt_tas_replicate_alltoall           6 14.5    0.000    0.000    0.158    0.256
 qs_env_setup                         1  3.0    0.001    0.002    0.228    0.248
 qs_env_rebuild_pw_env                2  3.5    0.000    0.000    0.226    0.248
 pw_env_rebuild                       1  5.0    0.003    0.008    0.226    0.247
 dbcsr_finalize                   17114 10.9    0.009    0.059    0.071    0.243
 fm_general_add_bse_1_setup           5 11.2    0.126    0.243    0.126    0.243
 topology_control                     1  2.0    0.003    0.007    0.017    0.240
 mp_isend_im2                      4186 13.1    0.081    0.237    0.081    0.237
 make_images_sizes                  208 11.1    0.000    0.000    0.230    0.237
 mp_alltoall_i44                    208 12.1    0.230    0.237    0.230    0.237
 dbt_tas_distribution_new           101 11.9    0.181    0.191    0.227    0.236
 Q_trace_and_add_unit_matrix        100  8.0    0.001    0.032    0.218    0.236
 connectivity_control                 1  3.0    0.008    0.223    0.013    0.232
 mp_sum_i                            22  9.8    0.115    0.224    0.115    0.224
 mp2_main_alloc_hfx                   1  4.0    0.108    0.223    0.108    0.223
 restraint_control                    1  2.0    0.000    0.000    0.114    0.223
 mp_cart_rank                   1739952 11.8    0.153    0.222    0.153    0.222
 dbt_tas_reshape_buffer_obtain       11 14.6    0.110    0.138    0.168    0.202
 dbt_create_new                      40  9.5    0.001    0.001    0.182    0.202
 fm_general_add_bse_4_buf_from_       1 10.0    0.075    0.194    0.075    0.194
 fm_general_add_bse_2_comm_entr       5 11.2    0.000    0.000    0.135    0.194
 pw_integral_ab_c1d_c1d_gs           84  9.0    0.025    0.030    0.124    0.193
 write_mo_set_to_restart             83  5.0    0.001    0.063    0.062    0.175
 cp_dbcsr_sm_fm_multiply              3 11.0    0.000    0.000    0.131    0.175
 mp_comm_split_direct                48 14.5    0.094    0.172    0.094    0.172
 write_mo_set_low                     5  6.0    0.000    0.000    0.061    0.161
 cp_fm_write_unformatted              5  7.0    0.058    0.094    0.061    0.161
 dbcsr_copy                       40885  7.5    0.060    0.117    0.103    0.159
 dbcsr_gershgorin_norm                1  6.0    0.001    0.016    0.114    0.156
 dbt_tas_copy                        10 12.7    0.063    0.072    0.136    0.152
 pw_scatter_p                       918 12.1    0.109    0.151    0.109    0.151
 compute_max_radius                   1  6.0    0.116    0.149    0.116    0.149
 dbcsr_merge_all                  15971 11.7    0.009    0.065    0.058    0.141
 mp2_main_free_hfx                    1  4.0    0.083    0.141    0.083    0.141
 pw_copy                           1255 10.6    0.101    0.138    0.101    0.138
 mp_alltoall_i11v                   920  9.3    0.093    0.137    0.093    0.137
 ao_to_mo_and_store_B_E_Ex_gw_1       2  7.0    0.011    0.030    0.091    0.137
 reshape_mm_compatible                8 13.5    0.000    0.000    0.128    0.135
 change_split                        12 14.0    0.000    0.001    0.124    0.131
 build_oce_matrices                   1  5.0    0.030    0.130    0.030    0.130
 dbcsr_iterator_start            118587  8.7    0.061    0.116    0.072    0.128
 ao_to_mo_and_store_B_E_Ex_bse_       2  7.0    0.011    0.023    0.082    0.127
 hfx_load_balance_redist              1 12.0    0.109    0.116    0.120    0.126
 -------------------------------------------------------------------------------

 The number of warnings for this run is : 2
 
 -------------------------------------------------------------------------------
  **** **** ******  **  PROGRAM ENDED AT                 2025-04-01 14:14:39.041
 ***** ** ***  *** **   PROGRAM RAN ON                     n2cn0174.ab2021.local
 **    ****   ******    PROGRAM RAN BY                                  metdyn02
 ***** **    ** ** **   PROGRAM PROCESS ID                               2025763
  **** **  *******  **  PROGRAM STOPPED IN /scratch/hpc-prf-metdyn/metdyn02_Remi
                                           /10_MOL/05_MOL/aUKBqsEOTmq69kFe5R_nOg
                                           /5k_set_final_qzvp/XETJIQ/aug-cc-pV5Z
                                           /GW+BSE
