 DBCSR| CPU Multiplication driver                                           BLAS (U)
 DBCSR| Multrec recursion limit                                              512 (U)
 DBCSR| Multiplication stack size                                           1000 (D)
 DBCSR| Maximum elements for images                                    UNLIMITED (U)
 DBCSR| Multiplicative factor virtual images                                   1 (U)
 DBCSR| Use multiplication densification                                       T (D)
 DBCSR| Multiplication size stacks                                             3 (U)
 DBCSR| Use memory pool for CPU allocation                                     F (U)
 DBCSR| Number of 3D layers                                               SINGLE (U)
 DBCSR| Use MPI memory allocation                                              F (U)
 DBCSR| Use RMA algorithm                                                      F (U)
 DBCSR| Use Communication thread                                               T (U)
 DBCSR| Communication thread load                                             75 (D)
 DBCSR| MPI: My process id                                                     0
 DBCSR| MPI: Number of processes                                             216
 DBCSR| OMP: Current number of threads                                         4
 DBCSR| OMP: Max number of threads                                             4
 DBCSR| Split modifier for TAS multiplication algorithm                  1.0E+00 (U)


  **** **** ******  **  PROGRAM STARTED AT               2025-04-02 12:05:03.532
 ***** ** ***  *** **   PROGRAM STARTED ON                          i08r01c06s01
 **    ****   ******    PROGRAM STARTED BY                               di38fab
 ***** **    ** ** **   PROGRAM PROCESS ID                               1704180
  **** **  *******  **  PROGRAM STARTED IN /hppfs/scratch/04/di38fab/07_MOL_non_
                                           aug/05_MOL_non_aug/05_MOL/aUKBqsEOTmq
                                           69kFe5R_nOg/5k_set_final_qzvp/NIWSOC/
                                           cc-pVQZ/TDDFT

 CP2K| version string:                 CP2K version 2025.1 (Development Version)
 CP2K| source code revision number:                                  git:d2e611a
 CP2K| cp2kflags: omp libint fftw3 libxc parallel scalapack max_contr=4         
 CP2K| is freely available from                            https://www.cp2k.org/
 CP2K| Program compiled at                       Thu 06 Mar 2025 05:09:20 PM CET
 CP2K| Program compiled on                                               login02
 CP2K| Program compiled for                                        Supermuc-foss
 CP2K| Data directory path                  /hppfs/work/pn36zo/di38fab/cp2k/data
 CP2K| Input file name                                                    GW.inp

 GLOBAL| Force Environment number                                              1
 GLOBAL| Basis set file name            /hppfs/scratch/04/di38fab/04_TMD/BASIS_A
 GLOBAL| Potential file name            /hppfs/work/pn36zo/di38fab/cp2k/data/ALL
 GLOBAL| MM Potential file name                                     MM_POTENTIAL
 GLOBAL| Coordinate file name                                      __STD_INPUT__
 GLOBAL| Method name                                                        CP2K
 GLOBAL| Project name                                                       MoS2
 GLOBAL| Run type                                                         ENERGY
 GLOBAL| FFT library                                                       FFTW3
 GLOBAL| Diagonalization library                                       ScaLAPACK
 GLOBAL| DGEMM library                                                      BLAS
 GLOBAL| Orthonormality check for eigenvectors                          DISABLED
 GLOBAL| Matrix multiplication library                                 ScaLAPACK
 GLOBAL| All-to-all communication in single precision                          F
 GLOBAL| FFTs using library dependent lengths                                  F
 GLOBAL| Grid backend                                                       AUTO
 GLOBAL| Global print level                                               MEDIUM
 GLOBAL| MPI I/O enabled                                                       T
 GLOBAL| Total number of message passing processes                           216
 GLOBAL| Number of threads for this process                                    4
 GLOBAL| This output is from process                                           0
 GLOBAL| OpenMP stack size per thread (OMP_STACKSIZE)                    default
 GLOBAL| CPU model name             Intel(R) Xeon(R) Platinum 8174 CPU @ 3.10GHz

 MEMORY| system memory details [Kb]
 MEMORY|                        rank 0           min           max       average
 MEMORY| MemTotal             98436664      98436660      98436736      98436666
 MEMORY| MemFree              84126636      83563796      84190896      83946246
 MEMORY| Buffers                     0             0             0             0
 MEMORY| Cached                2398980       2387244       2418932       2399814
 MEMORY| Slab                  1233672       1181060       1240656       1227628
 MEMORY| SReclaimable           275140        261864        277348        272369
 MEMORY| MemLikelyFree        86800756      86226072      86863048      86618430


 *** Fundamental physical constants (SI units) ***

 *** Literature: B. J. Mohr and B. N. Taylor,
 ***             CODATA recommended values of the fundamental physical
 ***             constants: 2006, Web Version 5.1
 ***             http://physics.nist.gov/constants

 Speed of light in vacuum [m/s]                             2.99792458000000E+08
 Magnetic constant or permeability of vacuum [N/A**2]       1.25663706143592E-06
 Electric constant or permittivity of vacuum [F/m]          8.85418781762039E-12
 Planck constant (h) [J*s]                                  6.62606896000000E-34
 Planck constant (h-bar) [J*s]                              1.05457162825177E-34
 Elementary charge [C]                                      1.60217648700000E-19
 Electron mass [kg]                                         9.10938215000000E-31
 Electron g factor [ ]                                     -2.00231930436220E+00
 Proton mass [kg]                                           1.67262163700000E-27
 Fine-structure constant                                    7.29735253760000E-03
 Rydberg constant [1/m]                                     1.09737315685270E+07
 Avogadro constant [1/mol]                                  6.02214179000000E+23
 Boltzmann constant [J/K]                                   1.38065040000000E-23
 Atomic mass unit [kg]                                      1.66053878200000E-27
 Bohr radius [m]                                            5.29177208590000E-11

 *** Conversion factors ***

 [u] -> [a.u.]                                              1.82288848426455E+03
 [Angstrom] -> [Bohr] = [a.u.]                              1.88972613288564E+00
 [a.u.] = [Bohr] -> [Angstrom]                              5.29177208590000E-01
 [a.u.] -> [s]                                              2.41888432650478E-17
 [a.u.] -> [fs]                                             2.41888432650478E-02
 [a.u.] -> [J]                                              4.35974393937059E-18
 [a.u.] -> [N]                                              8.23872205491840E-08
 [a.u.] -> [K]                                              3.15774647902944E+05
 [a.u.] -> [kJ/mol]                                         2.62549961709828E+03
 [a.u.] -> [kcal/mol]                                       6.27509468713739E+02
 [a.u.] -> [Pa]                                             2.94210107994716E+13
 [a.u.] -> [bar]                                            2.94210107994716E+08
 [a.u.] -> [atm]                                            2.90362800883016E+08
 [a.u.] -> [eV]                                             2.72113838565563E+01
 [a.u.] -> [Hz]                                             6.57968392072181E+15
 [a.u.] -> [1/cm] (wave numbers)                            2.19474631370540E+05
 [a.u./Bohr**2] -> [1/cm]                                   5.14048714338585E+03
 

 CELL_TOP| Volume [angstrom^3]:                                     27000.000000
 CELL_TOP| Vector a [angstrom    30.000     0.000     0.000   |a| =    30.000000
 CELL_TOP| Vector b [angstrom     0.000    30.000     0.000   |b| =    30.000000
 CELL_TOP| Vector c [angstrom     0.000     0.000    30.000   |c| =    30.000000
 CELL_TOP| Angle (b,c), alpha [degree]:                                90.000000
 CELL_TOP| Angle (a,c), beta  [degree]:                                90.000000
 CELL_TOP| Angle (a,b), gamma [degree]:                                90.000000
 CELL_TOP| Numerically orthorhombic:                                         YES
 CELL_TOP| Periodicity                                                      NONE

 GENERATE|  Preliminary Number of Bonds generated:                             0
 GENERATE|  Achieved consistency in connectivity generation.

 CELL| Volume [angstrom^3]:                                         27000.000000
 CELL| Vector a [angstrom]:      30.000     0.000     0.000   |a| =    30.000000
 CELL| Vector b [angstrom]:       0.000    30.000     0.000   |b| =    30.000000
 CELL| Vector c [angstrom]:       0.000     0.000    30.000   |c| =    30.000000
 CELL| Angle (b,c), alpha [degree]:                                    90.000000
 CELL| Angle (a,c), beta  [degree]:                                    90.000000
 CELL| Angle (a,b), gamma [degree]:                                    90.000000
 CELL| Numerically orthorhombic:                                             YES
 CELL| Periodicity                                                          NONE

 CELL_REF| Volume [angstrom^3]:                                     27000.000000
 CELL_REF| Vector a [angstrom    30.000     0.000     0.000   |a| =    30.000000
 CELL_REF| Vector b [angstrom     0.000    30.000     0.000   |b| =    30.000000
 CELL_REF| Vector c [angstrom     0.000     0.000    30.000   |c| =    30.000000
 CELL_REF| Angle (b,c), alpha [degree]:                                90.000000
 CELL_REF| Angle (a,c), beta  [degree]:                                90.000000
 CELL_REF| Angle (a,b), gamma [degree]:                                90.000000
 CELL_REF| Numerically orthorhombic:                                         YES
 CELL_REF| Periodicity                                                      NONE

 *******************************************************************************
 *******************************************************************************
 **                                                                           **
 **     #####                         ##              ##                      **
 **    ##   ##            ##          ##              ##                      **
 **   ##     ##                       ##            ######                    **
 **   ##     ##  ##   ##  ##   #####  ##  ##   ####   ##    #####    #####    **
 **   ##     ##  ##   ##  ##  ##      ## ##   ##      ##   ##   ##  ##   ##   **
 **   ##  ## ##  ##   ##  ##  ##      ####     ###    ##   ######   ######    **
 **    ##  ###   ##   ##  ##  ##      ## ##      ##   ##   ##       ##        **
 **     #######   #####   ##   #####  ##  ##  ####    ##    #####   ##        **
 **           ##                                                    ##        **
 **                                                                           **
 **                                                ... make the atoms dance   **
 **                                                                           **
 **            Copyright (C) by CP2K developers group (2000-2025)             **
 **                      J. Chem. Phys. 152, 194103 (2020)                    **
 **                                                                           **
 *******************************************************************************

 DFT| Spin restricted Kohn-Sham (RKS) calculation                            RKS
 DFT| Multiplicity                                                             1
 DFT| Number of spin states                                                    1
 DFT| Charge                                                                   0
 DFT| Self-interaction correction (SIC)                                       NO
 DFT| Cutoffs: density                                              1.000000E-10
 DFT|          gradient                                             1.000000E-10
 DFT|          tau                                                  1.000000E-10
 DFT|          cutoff_smoothing_range                               0.000000E+00
 DFT| XC density smoothing                                                  NONE
 DFT| XC derivatives                                                          PW

 FUNCTIONAL| PBE:
 FUNCTIONAL| J.P.Perdew, K.Burke, M.Ernzerhof, Phys. Rev. Letter, vol. 77, n 18,
 FUNCTIONAL|  pp. 3865-3868, (1996)sx=0.750sc=1.000{spin unpolarized}           


 QS| Method:                                                                GAPW
 QS| Density plane wave grid type                        NON-SPHERICAL FULLSPACE
 QS| Number of grid levels:                                                    4
 QS| Density cutoff [a.u.]:                                                250.0
 QS| Multi grid cutoff [a.u.]: 1) grid level                               250.0
 QS|                           2) grid level                                83.3
 QS|                           3) grid level                                27.8
 QS|                           4) grid level                                 9.3
 QS| Grid level progression factor:                                          3.0
 QS| Relative density cutoff [a.u.]:                                        50.0
 QS| Interaction thresholds: eps_pgf_orb:                                1.0E-12
 QS|                         eps_filter_matrix:                          0.0E+00
 QS|                         eps_core_charge:                            1.0E-14
 QS|                         eps_rho_gspace:                             1.0E-12
 QS|                         eps_rho_rspace:                             1.0E-12
 QS|                         eps_gvg_rspace:                             1.0E-06
 QS|                         eps_ppl:                                    1.0E-02
 QS|                         eps_ppnl:                                   1.0E-08
 QS| GAPW|      One center basis from orbital basis primitives
 QS| GAPW|                   eps_fit:                                    1.0E-04
 QS| GAPW|                   eps_iso:                                    1.0E-12
 QS| GAPW|                   eps_svd:                                    1.0E-08
 QS| GAPW|                   eps_cpc:                                    1.0E-12
 QS| GAPW|   atom-r-grid: quadrature:                                     GC_LOG
 QS| GAPW|      atom-s-grid:  max l :                                          8
 QS| GAPW|      max_l_rho0 :                                                   2


 ATOMIC KIND INFORMATION

  1. Atomic kind: C                                     Number of atoms:       8

     Orbital Basis Set                                                   cc-pVQZ

       Number of orbital shell sets:                                           5
       Number of orbital shells:                                              15
       Number of primitive Cartesian functions:                               24
       Number of Cartesian basis functions:                                   70
       Number of spherical basis functions:                                   55
       Norm type:                                                              2

       Normalised Cartesian orbitals:

                        Set   Shell   Orbital            Exponent    Coefficient

                          1       1    1px              34.510000       0.000000
                                                         7.915000       0.000000
                                                         2.368000       0.000000
                                                         0.813200       1.100745
                                                         0.289000       0.000000
                                                         0.100700       0.000000
                          1       1    1py              34.510000       0.000000
                                                         7.915000       0.000000
                                                         2.368000       0.000000
                                                         0.813200       1.100745
                                                         0.289000       0.000000
                                                         0.100700       0.000000
                          1       1    1pz              34.510000       0.000000
                                                         7.915000       0.000000
                                                         2.368000       0.000000
                                                         0.813200       1.100745
                                                         0.289000       0.000000
                                                         0.100700       0.000000

                          1       2    2px              34.510000       0.641198
                                                         7.915000       0.683747
                                                         2.368000       0.596637
                                                         0.813200       0.376620
                                                         0.289000       0.140105
                                                         0.100700       0.020217
                          1       2    2py              34.510000       0.641198
                                                         7.915000       0.683747
                                                         2.368000       0.596637
                                                         0.813200       0.376620
                                                         0.289000       0.140105
                                                         0.100700       0.020217
                          1       2    2pz              34.510000       0.641198
                                                         7.915000       0.683747
                                                         2.368000       0.596637
                                                         0.813200       0.376620
                                                         0.289000       0.140105
                                                         0.100700       0.020217

                          1       3    3px              34.510000       0.000000
                                                         7.915000       0.000000
                                                         2.368000       0.000000
                                                         0.813200       0.000000
                                                         0.289000       0.302039
                                                         0.100700       0.000000
                          1       3    3py              34.510000       0.000000
                                                         7.915000       0.000000
                                                         2.368000       0.000000
                                                         0.813200       0.000000
                                                         0.289000       0.302039
                                                         0.100700       0.000000
                          1       3    3pz              34.510000       0.000000
                                                         7.915000       0.000000
                                                         2.368000       0.000000
                                                         0.813200       0.000000
                                                         0.289000       0.302039
                                                         0.100700       0.000000

                          1       4    4px              34.510000       0.000000
                                                         7.915000       0.000000
                                                         2.368000       0.000000
                                                         0.813200       0.000000
                                                         0.289000       0.000000
                                                         0.100700       0.080859
                          1       4    4py              34.510000       0.000000
                                                         7.915000       0.000000
                                                         2.368000       0.000000
                                                         0.813200       0.000000
                                                         0.289000       0.000000
                                                         0.100700       0.080859
                          1       4    4pz              34.510000       0.000000
                                                         7.915000       0.000000
                                                         2.368000       0.000000
                                                         0.813200       0.000000
                                                         0.289000       0.000000
                                                         0.100700       0.080859

                          2       1    1s            33980.000000       0.162319
                                                      5089.000000       0.302313
                                                      1157.000000       0.522143
                                                       326.600000       0.841034
                                                       106.100000       1.247069
                                                        38.110000       1.607436
                                                        14.750000       1.639463
                                                         6.035000       1.095889
                                                         2.530000       0.310322
                                                         0.735500       0.008997
                                                         0.290500      -0.000870
                                                         0.111100       0.000134

                          2       2    2s            33980.000000       0.000000
                                                      5089.000000       0.000000
                                                      1157.000000       0.000000
                                                       326.600000       0.000000
                                                       106.100000       0.000000
                                                        38.110000       0.000000
                                                        14.750000       0.000000
                                                         6.035000       0.000000
                                                         2.530000       0.000000
                                                         0.735500       0.566040
                                                         0.290500       0.000000
                                                         0.111100       0.000000

                          2       3    3s            33980.000000       0.000000
                                                      5089.000000       0.000000
                                                      1157.000000       0.000000
                                                       326.600000       0.000000
                                                       106.100000       0.000000
                                                        38.110000       0.000000
                                                        14.750000       0.000000
                                                         6.035000       0.000000
                                                         2.530000       0.000000
                                                         0.735500       0.000000
                                                         0.290500       0.282013
                                                         0.111100       0.000000

                          2       4    4s            33980.000000      -0.033891
                                                      5089.000000      -0.064843
                                                      1157.000000      -0.110989
                                                       326.600000      -0.182005
                                                       106.100000      -0.271236
                                                        38.110000      -0.373428
                                                        14.750000      -0.413970
                                                         6.035000      -0.388287
                                                         2.530000      -0.168734
                                                         0.735500       0.154985
                                                         0.290500       0.165404
                                                         0.111100       0.039147

                          2       5    5s            33980.000000       0.000000
                                                      5089.000000       0.000000
                                                      1157.000000       0.000000
                                                       326.600000       0.000000
                                                       106.100000       0.000000
                                                        38.110000       0.000000
                                                        14.750000       0.000000
                                                         6.035000       0.000000
                                                         2.530000       0.000000
                                                         0.735500       0.000000
                                                         0.290500       0.000000
                                                         0.111100       0.137150

                          3       1    1dx2              1.848000       4.821009
                                                         0.649000       0.000000
                                                         0.228000       0.000000
                          3       1    1dxy              1.848000       8.350232
                                                         0.649000       0.000000
                                                         0.228000       0.000000
                          3       1    1dxz              1.848000       8.350232
                                                         0.649000       0.000000
                                                         0.228000       0.000000
                          3       1    1dy2              1.848000       4.821009
                                                         0.649000       0.000000
                                                         0.228000       0.000000
                          3       1    1dyz              1.848000       8.350232
                                                         0.649000       0.000000
                                                         0.228000       0.000000
                          3       1    1dz2              1.848000       4.821009
                                                         0.649000       0.000000
                                                         0.228000       0.000000

                          3       2    2dx2              1.848000       0.000000
                                                         0.649000       0.772392
                                                         0.228000       0.000000
                          3       2    2dxy              1.848000       0.000000
                                                         0.649000       1.337822
                                                         0.228000       0.000000
                          3       2    2dxz              1.848000       0.000000
                                                         0.649000       1.337822
                                                         0.228000       0.000000
                          3       2    2dy2              1.848000       0.000000
                                                         0.649000       0.772392
                                                         0.228000       0.000000
                          3       2    2dyz              1.848000       0.000000
                                                         0.649000       1.337822
                                                         0.228000       0.000000
                          3       2    2dz2              1.848000       0.000000
                                                         0.649000       0.772392
                                                         0.228000       0.000000

                          3       3    3dx2              1.848000       0.000000
                                                         0.649000       0.000000
                                                         0.228000       0.123821
                          3       3    3dxy              1.848000       0.000000
                                                         0.649000       0.000000
                                                         0.228000       0.214465
                          3       3    3dxz              1.848000       0.000000
                                                         0.649000       0.000000
                                                         0.228000       0.214465
                          3       3    3dy2              1.848000       0.000000
                                                         0.649000       0.000000
                                                         0.228000       0.123821
                          3       3    3dyz              1.848000       0.000000
                                                         0.649000       0.000000
                                                         0.228000       0.214465
                          3       3    3dz2              1.848000       0.000000
                                                         0.649000       0.000000
                                                         0.228000       0.123821

                          4       1    1fx3              1.419000       3.235302
                                                         0.485000       0.000000
                          4       1    1fx2y             1.419000       7.234355
                                                         0.485000       0.000000
                          4       1    1fx2z             1.419000       7.234355
                                                         0.485000       0.000000
                          4       1    1fxy2             1.419000       7.234355
                                                         0.485000       0.000000
                          4       1    1fxyz             1.419000      12.530271
                                                         0.485000       0.000000
                          4       1    1fxz2             1.419000       7.234355
                                                         0.485000       0.000000
                          4       1    1fy3              1.419000       3.235302
                                                         0.485000       0.000000
                          4       1    1fy2z             1.419000       7.234355
                                                         0.485000       0.000000
                          4       1    1fyz2             1.419000       7.234355
                                                         0.485000       0.000000
                          4       1    1fz3              1.419000       3.235302
                                                         0.485000       0.000000

                          4       2    2fx3              1.419000       0.000000
                                                         0.485000       0.288984
                          4       2    2fx2y             1.419000       0.000000
                                                         0.485000       0.646187
                          4       2    2fx2z             1.419000       0.000000
                                                         0.485000       0.646187
                          4       2    2fxy2             1.419000       0.000000
                                                         0.485000       0.646187
                          4       2    2fxyz             1.419000       0.000000
                                                         0.485000       1.119229
                          4       2    2fxz2             1.419000       0.000000
                                                         0.485000       0.646187
                          4       2    2fy3              1.419000       0.000000
                                                         0.485000       0.288984
                          4       2    2fy2z             1.419000       0.000000
                                                         0.485000       0.646187
                          4       2    2fyz2             1.419000       0.000000
                                                         0.485000       0.646187
                          4       2    2fz3              1.419000       0.000000
                                                         0.485000       0.288984

                          5       1    1gx4              1.011000       1.146835
                          5       1    1gx3y             1.011000       3.034241
                          5       1    1gx3z             1.011000       3.034241
                          5       1    1gx2y2            1.011000       3.917189
                          5       1    1gx2yz            1.011000       6.784770
                          5       1    1gx2z2            1.011000       3.917189
                          5       1    1gxy3             1.011000       3.034241
                          5       1    1gxy2z            1.011000       6.784770
                          5       1    1gxyz2            1.011000       6.784770
                          5       1    1gxz3             1.011000       3.034241
                          5       1    1gy4              1.011000       1.146835
                          5       1    1gy3z             1.011000       3.034241
                          5       1    1gy2z2            1.011000       3.917189
                          5       1    1gyz3             1.011000       3.034241
                          5       1    1gz4              1.011000       1.146835

     RI Auxiliary Basis Set                                        cc-pVQZ-RIFIT

       Number of orbital shell sets:                                          30
       Number of orbital shells:                                              30
       Number of primitive Cartesian functions:                               30
       Number of Cartesian basis functions:                                  181
       Number of spherical basis functions:                                  132
       Norm type:                                                              2

       Normalised Cartesian orbitals:

                        Set   Shell   Orbital            Exponent    Coefficient

                          1       1    1px               0.245452       0.246262
                          1       1    1py               0.245452       0.246262
                          1       1    1pz               0.245452       0.246262

                          2       1    1s                0.249261       0.251421

                          3       1    1fx3              0.348633       0.137494
                          3       1    1fx2y             0.348633       0.307445
                          3       1    1fx2z             0.348633       0.307445
                          3       1    1fxy2             0.348633       0.307445
                          3       1    1fxyz             0.348633       0.532510
                          3       1    1fxz2             0.348633       0.307445
                          3       1    1fy3              0.348633       0.137494
                          3       1    1fy2z             0.348633       0.307445
                          3       1    1fyz2             0.348633       0.307445
                          3       1    1fz3              0.348633       0.137494

                          4       1    1dx2              0.352145       0.264955
                          4       1    1dxy              0.352145       0.458916
                          4       1    1dxz              0.352145       0.458916
                          4       1    1dy2              0.352145       0.264955
                          4       1    1dyz              0.352145       0.458916
                          4       1    1dz2              0.352145       0.264955

                          5       1    1s                0.489646       0.417178

                          6       1    1px               0.517168       0.625144
                          6       1    1py               0.517168       0.625144
                          6       1    1pz               0.517168       0.625144

                          7       1    1dx2              0.599456       0.672178
                          7       1    1dxy              0.599456       1.164246
                          7       1    1dxz              0.599456       1.164246
                          7       1    1dy2              0.599456       0.672178
                          7       1    1dyz              0.599456       1.164246
                          7       1    1dz2              0.599456       0.672178

                          8       1    1gx4              0.713257       0.439402
                          8       1    1gx3y             0.713257       1.162547
                          8       1    1gx3z             0.713257       1.162547
                          8       1    1gx2y2            0.713257       1.500842
                          8       1    1gx2yz            0.713257       2.599535
                          8       1    1gx2z2            0.713257       1.500842
                          8       1    1gxy3             0.713257       1.162547
                          8       1    1gxy2z            0.713257       2.599535
                          8       1    1gxyz2            0.713257       2.599535
                          8       1    1gxz3             0.713257       1.162547
                          8       1    1gy4              0.713257       0.439402
                          8       1    1gy3z             0.713257       1.162547
                          8       1    1gy2z2            0.713257       1.500842
                          8       1    1gyz3             0.713257       1.162547
                          8       1    1gz4              0.713257       0.439402

                          9       1    1fx3              0.729795       0.724697
                          9       1    1fx2y             0.729795       1.620471
                          9       1    1fx2z             0.729795       1.620471
                          9       1    1fxy2             0.729795       1.620471
                          9       1    1fxyz             0.729795       2.806738
                          9       1    1fxz2             0.729795       1.620471
                          9       1    1fy3              0.729795       0.724697
                          9       1    1fy2z             0.729795       1.620471
                          9       1    1fyz2             0.729795       1.620471
                          9       1    1fz3              0.729795       0.724697

                         10       1    1s                0.872371       0.643333

                         11       1    1dx2              1.031012       1.736286
                         11       1    1dxy              1.031012       3.007336
                         11       1    1dxz              1.031012       3.007336
                         11       1    1dy2              1.031012       1.736286
                         11       1    1dyz              1.031012       3.007336
                         11       1    1dz2              1.031012       1.736286

                         12       1    1px               1.053382       1.521151
                         12       1    1py               1.053382       1.521151
                         12       1    1pz               1.053382       1.521151

                         13       1    1gx4              1.349558       2.537826
                         13       1    1gx3y             1.349558       6.714456
                         13       1    1gx3z             1.349558       6.714456
                         13       1    1gx2y2            1.349558       8.668326
                         13       1    1gx2yz            1.349558      15.013981
                         13       1    1gx2z2            1.349558       8.668326
                         13       1    1gxy3             1.349558       6.714456
                         13       1    1gxy2z            1.349558      15.013981
                         13       1    1gxyz2            1.349558      15.013981
                         13       1    1gxz3             1.349558       6.714456
                         13       1    1gy4              1.349558       2.537826
                         13       1    1gy3z             1.349558       6.714456
                         13       1    1gy2z2            1.349558       8.668326
                         13       1    1gyz3             1.349558       6.714456
                         13       1    1gz4              1.349558       2.537826

                         14       1    1hx5              1.486936       2.693359
                         14       1    1hx4y             1.486936       8.080076
                         14       1    1hx4z             1.486936       8.080076
                         14       1    1hx3y2            1.486936      12.342519
                         14       1    1hx3yz            1.486936      21.377871
                         14       1    1hx3z2            1.486936      12.342519
                         14       1    1hx2y3            1.486936      12.342519
                         14       1    1hx2y2z           1.486936      27.598712
                         14       1    1hx2yz2           1.486936      27.598712
                         14       1    1hx2z3            1.486936      12.342519
                         14       1    1hxy4             1.486936       8.080076
                         14       1    1hxy3z            1.486936      21.377871
                         14       1    1hxy2z2           1.486936      27.598712
                         14       1    1hxyz3            1.486936      21.377871
                         14       1    1hxz4             1.486936       8.080076
                         14       1    1hy5              1.486936       2.693359
                         14       1    1hy4z             1.486936       8.080076
                         14       1    1hy3z2            1.486936      12.342519
                         14       1    1hy2z3            1.486936      12.342519
                         14       1    1hyz4             1.486936       8.080076
                         14       1    1hz5              1.486936       2.693359

                         15       1    1s                1.639209       1.032490

                         16       1    1px               1.688444       2.743459
                         16       1    1py               1.688444       2.743459
                         16       1    1pz               1.688444       2.743459

                         17       1    1fx3              1.738978       5.112301
                         17       1    1fx2y             1.738978      11.431452
                         17       1    1fx2z             1.738978      11.431452
                         17       1    1fxy2             1.738978      11.431452
                         17       1    1fxyz             1.738978      19.799856
                         17       1    1fxz2             1.738978      11.431452
                         17       1    1fy3              1.738978       5.112301
                         17       1    1fy2z             1.738978      11.431452
                         17       1    1fyz2             1.738978      11.431452
                         17       1    1fz3              1.738978       5.112301

                         18       1    1dx2              2.204215       6.563024
                         18       1    1dxy              2.204215      11.367491
                         18       1    1dxz              2.204215      11.367491
                         18       1    1dy2              2.204215       6.563024
                         18       1    1dyz              2.204215      11.367491
                         18       1    1dz2              2.204215       6.563024

                         19       1    1fx3              2.263014       9.246997
                         19       1    1fx2y             2.263014      20.676914
                         19       1    1fx2z             2.263014      20.676914
                         19       1    1fxy2             2.263014      20.676914
                         19       1    1fxyz             2.263014      35.813466
                         19       1    1fxz2             2.263014      20.676914
                         19       1    1fy3              2.263014       9.246997
                         19       1    1fy2z             2.263014      20.676914
                         19       1    1fyz2             2.263014      20.676914
                         19       1    1fz3              2.263014       9.246997

                         20       1    1gx4              2.812776      19.123049
                         20       1    1gx3y             2.812776      50.594833
                         20       1    1gx3z             2.812776      50.594833
                         20       1    1gx2y2            2.812776      65.317648
                         20       1    1gx2yz            2.812776     113.133486
                         20       1    1gx2z2            2.812776      65.317648
                         20       1    1gxy3             2.812776      50.594833
                         20       1    1gxy2z            2.812776     113.133486
                         20       1    1gxyz2            2.812776     113.133486
                         20       1    1gxz3             2.812776      50.594833
                         20       1    1gy4              2.812776      19.123049
                         20       1    1gy3z             2.812776      50.594833
                         20       1    1gy2z2            2.812776      65.317648
                         20       1    1gyz3             2.812776      50.594833
                         20       1    1gz4              2.812776      19.123049

                         21       1    1px               3.590642       7.045394
                         21       1    1py               3.590642       7.045394
                         21       1    1pz               3.590642       7.045394

                         22       1    1s                4.179168       2.083183

                         23       1    1fx3              5.448411      66.766969
                         23       1    1fx2y             5.448411     149.295482
                         23       1    1fx2z             5.448411     149.295482
                         23       1    1fxy2             5.448411     149.295482
                         23       1    1fxyz             5.448411     258.587361
                         23       1    1fxz2             5.448411     149.295482
                         23       1    1fy3              5.448411      66.766969
                         23       1    1fy2z             5.448411     149.295482
                         23       1    1fyz2             5.448411     149.295482
                         23       1    1fz3              5.448411      66.766969

                         24       1    1dx2              5.640287      33.977119
                         24       1    1dxy              5.640287      58.850096
                         24       1    1dxz              5.640287      58.850096
                         24       1    1dy2              5.640287      33.977119
                         24       1    1dyz              5.640287      58.850096
                         24       1    1dz2              5.640287      33.977119

                         25       1    1s                9.171527       3.756136

                         26       1    1px              12.325982      32.920544
                         26       1    1py              12.325982      32.920544
                         26       1    1pz              12.325982      32.920544

                         27       1    1dx2             16.935434     232.703555
                         27       1    1dxy             16.935434     403.054381
                         27       1    1dxz             16.935434     403.054381
                         27       1    1dy2             16.935434     232.703555
                         27       1    1dyz             16.935434     403.054381
                         27       1    1dz2             16.935434     232.703555

                         28       1    1s               47.118566      12.817524

                         29       1    1px              49.862265     188.866569
                         29       1    1py              49.862265     188.866569
                         29       1    1pz              49.862265     188.866569

                         30       1    1s              221.309708      40.894080

       Atomic covalent radius [Angstrom]:                                  0.770

       Atomic van der Waals radius [Angstrom]:                             1.700

     The atoms of this atomic kind are PAW atoms (GAPW):
       Hard Gaussian function radius:                                      1.512
       Rho0 radius:                                                        1.512
       Maximum GTO radius used for PAW projector construction:            24.566

     GAPW Soft Basis Set                                            cc-pVQZ_soft

       Number of orbital shell sets:                                           5
       Number of orbital shells:                                              15
       Number of primitive Cartesian functions:                               14
       Number of Cartesian basis functions:                                   70
       Number of spherical basis functions:                                   55
       Norm type:                                                              2

       Normalised Cartesian orbitals:

                        Set   Shell   Orbital            Exponent    Coefficient

                          1       1    1px               2.368000       0.000000
                                                         0.813200       1.100745
                                                         0.289000       0.000000
                                                         0.100700       0.000000
                          1       1    1py               2.368000       0.000000
                                                         0.813200       1.100745
                                                         0.289000       0.000000
                                                         0.100700       0.000000
                          1       1    1pz               2.368000       0.000000
                                                         0.813200       1.100745
                                                         0.289000       0.000000
                                                         0.100700       0.000000

                          1       2    2px               2.368000       0.596637
                                                         0.813200       0.376620
                                                         0.289000       0.140105
                                                         0.100700       0.020217
                          1       2    2py               2.368000       0.596637
                                                         0.813200       0.376620
                                                         0.289000       0.140105
                                                         0.100700       0.020217
                          1       2    2pz               2.368000       0.596637
                                                         0.813200       0.376620
                                                         0.289000       0.140105
                                                         0.100700       0.020217

                          1       3    3px               2.368000       0.000000
                                                         0.813200       0.000000
                                                         0.289000       0.302039
                                                         0.100700       0.000000
                          1       3    3py               2.368000       0.000000
                                                         0.813200       0.000000
                                                         0.289000       0.302039
                                                         0.100700       0.000000
                          1       3    3pz               2.368000       0.000000
                                                         0.813200       0.000000
                                                         0.289000       0.302039
                                                         0.100700       0.000000

                          1       4    4px               2.368000       0.000000
                                                         0.813200       0.000000
                                                         0.289000       0.000000
                                                         0.100700       0.080859
                          1       4    4py               2.368000       0.000000
                                                         0.813200       0.000000
                                                         0.289000       0.000000
                                                         0.100700       0.080859
                          1       4    4pz               2.368000       0.000000
                                                         0.813200       0.000000
                                                         0.289000       0.000000
                                                         0.100700       0.080859

                          2       1    1s                2.530000       0.310322
                                                         0.735500       0.008997
                                                         0.290500      -0.000870
                                                         0.111100       0.000134

                          2       2    2s                2.530000       0.000000
                                                         0.735500       0.566040
                                                         0.290500       0.000000
                                                         0.111100       0.000000

                          2       3    3s                2.530000       0.000000
                                                         0.735500       0.000000
                                                         0.290500       0.282013
                                                         0.111100       0.000000

                          2       4    4s                2.530000      -0.168734
                                                         0.735500       0.154985
                                                         0.290500       0.165404
                                                         0.111100       0.039147

                          2       5    5s                2.530000       0.000000
                                                         0.735500       0.000000
                                                         0.290500       0.000000
                                                         0.111100       0.137150

                          3       1    1dx2              1.848000       4.821009
                                                         0.649000       0.000000
                                                         0.228000       0.000000
                          3       1    1dxy              1.848000       8.350232
                                                         0.649000       0.000000
                                                         0.228000       0.000000
                          3       1    1dxz              1.848000       8.350232
                                                         0.649000       0.000000
                                                         0.228000       0.000000
                          3       1    1dy2              1.848000       4.821009
                                                         0.649000       0.000000
                                                         0.228000       0.000000
                          3       1    1dyz              1.848000       8.350232
                                                         0.649000       0.000000
                                                         0.228000       0.000000
                          3       1    1dz2              1.848000       4.821009
                                                         0.649000       0.000000
                                                         0.228000       0.000000

                          3       2    2dx2              1.848000       0.000000
                                                         0.649000       0.772392
                                                         0.228000       0.000000
                          3       2    2dxy              1.848000       0.000000
                                                         0.649000       1.337822
                                                         0.228000       0.000000
                          3       2    2dxz              1.848000       0.000000
                                                         0.649000       1.337822
                                                         0.228000       0.000000
                          3       2    2dy2              1.848000       0.000000
                                                         0.649000       0.772392
                                                         0.228000       0.000000
                          3       2    2dyz              1.848000       0.000000
                                                         0.649000       1.337822
                                                         0.228000       0.000000
                          3       2    2dz2              1.848000       0.000000
                                                         0.649000       0.772392
                                                         0.228000       0.000000

                          3       3    3dx2              1.848000       0.000000
                                                         0.649000       0.000000
                                                         0.228000       0.123821
                          3       3    3dxy              1.848000       0.000000
                                                         0.649000       0.000000
                                                         0.228000       0.214465
                          3       3    3dxz              1.848000       0.000000
                                                         0.649000       0.000000
                                                         0.228000       0.214465
                          3       3    3dy2              1.848000       0.000000
                                                         0.649000       0.000000
                                                         0.228000       0.123821
                          3       3    3dyz              1.848000       0.000000
                                                         0.649000       0.000000
                                                         0.228000       0.214465
                          3       3    3dz2              1.848000       0.000000
                                                         0.649000       0.000000
                                                         0.228000       0.123821

                          4       1    1fx3              1.419000       3.235302
                                                         0.485000       0.000000
                          4       1    1fx2y             1.419000       7.234355
                                                         0.485000       0.000000
                          4       1    1fx2z             1.419000       7.234355
                                                         0.485000       0.000000
                          4       1    1fxy2             1.419000       7.234355
                                                         0.485000       0.000000
                          4       1    1fxyz             1.419000      12.530271
                                                         0.485000       0.000000
                          4       1    1fxz2             1.419000       7.234355
                                                         0.485000       0.000000
                          4       1    1fy3              1.419000       3.235302
                                                         0.485000       0.000000
                          4       1    1fy2z             1.419000       7.234355
                                                         0.485000       0.000000
                          4       1    1fyz2             1.419000       7.234355
                                                         0.485000       0.000000
                          4       1    1fz3              1.419000       3.235302
                                                         0.485000       0.000000

                          4       2    2fx3              1.419000       0.000000
                                                         0.485000       0.288984
                          4       2    2fx2y             1.419000       0.000000
                                                         0.485000       0.646187
                          4       2    2fx2z             1.419000       0.000000
                                                         0.485000       0.646187
                          4       2    2fxy2             1.419000       0.000000
                                                         0.485000       0.646187
                          4       2    2fxyz             1.419000       0.000000
                                                         0.485000       1.119229
                          4       2    2fxz2             1.419000       0.000000
                                                         0.485000       0.646187
                          4       2    2fy3              1.419000       0.000000
                                                         0.485000       0.288984
                          4       2    2fy2z             1.419000       0.000000
                                                         0.485000       0.646187
                          4       2    2fyz2             1.419000       0.000000
                                                         0.485000       0.646187
                          4       2    2fz3              1.419000       0.000000
                                                         0.485000       0.288984

                          5       1    1gx4              1.011000       1.146835
                          5       1    1gx3y             1.011000       3.034241
                          5       1    1gx3z             1.011000       3.034241
                          5       1    1gx2y2            1.011000       3.917189
                          5       1    1gx2yz            1.011000       6.784770
                          5       1    1gx2z2            1.011000       3.917189
                          5       1    1gxy3             1.011000       3.034241
                          5       1    1gxy2z            1.011000       6.784770
                          5       1    1gxyz2            1.011000       6.784770
                          5       1    1gxz3             1.011000       3.034241
                          5       1    1gy4              1.011000       1.146835
                          5       1    1gy3z             1.011000       3.034241
                          5       1    1gy2z2            1.011000       3.917189
                          5       1    1gyz3             1.011000       3.034241
                          5       1    1gz4              1.011000       1.146835

     AE Potential information for                                            ALL

       Description:                                       All-electron potential
                                          Krack, Parrinello, PCCP 2, 2105 (2000)

       Gaussian exponent of the core charge distribution:               4.109048
       Electronic configuration (s p d ...):                           4   2   0

  2. Atomic kind: H                                     Number of atoms:       6

     Orbital Basis Set                                                   cc-pVQZ

       Number of orbital shell sets:                                           4
       Number of orbital shells:                                              10
       Number of primitive Cartesian functions:                               12
       Number of Cartesian basis functions:                                   35
       Number of spherical basis functions:                                   30
       Norm type:                                                              2

       Normalised Cartesian orbitals:

                        Set   Shell   Orbital            Exponent    Coefficient

                          1       1    1s               82.640000       0.000000
                                                        12.410000       0.000000
                                                         2.824000       0.000000
                                                         0.797700       0.601575
                                                         0.258100       0.000000
                                                         0.089890       0.000000

                          1       2    2s               82.640000       0.000000
                                                        12.410000       0.000000
                                                         2.824000       0.000000
                                                         0.797700       0.000000
                                                         0.258100       0.258078
                                                         0.089890       0.000000

                          1       3    3s               82.640000       0.039186
                                                        12.410000       0.072302
                                                         2.824000       0.117344
                                                         0.797700       0.154530
                                                         0.258100       0.128360
                                                         0.089890       0.034648

                          1       4    4s               82.640000       0.000000
                                                        12.410000       0.000000
                                                         2.824000       0.000000
                                                         0.797700       0.000000
                                                         0.258100       0.000000
                                                         0.089890       0.117002

                          2       1    1px               2.292000       4.019836
                                                         0.838000       0.000000
                                                         0.292000       0.000000
                          2       1    1py               2.292000       4.019836
                                                         0.838000       0.000000
                                                         0.292000       0.000000
                          2       1    1pz               2.292000       4.019836
                                                         0.838000       0.000000
                                                         0.292000       0.000000

                          2       2    2px               2.292000       0.000000
                                                         0.838000       1.142865
                                                         0.292000       0.000000
                          2       2    2py               2.292000       0.000000
                                                         0.838000       1.142865
                                                         0.292000       0.000000
                          2       2    2pz               2.292000       0.000000
                                                         0.838000       1.142865
                                                         0.292000       0.000000

                          2       3    3px               2.292000       0.000000
                                                         0.838000       0.000000
                                                         0.292000       0.305963
                          2       3    3py               2.292000       0.000000
                                                         0.838000       0.000000
                                                         0.292000       0.305963
                          2       3    3pz               2.292000       0.000000
                                                         0.838000       0.000000
                                                         0.292000       0.305963

                          3       1    1dx2              2.062000       5.840024
                                                         0.662000       0.000000
                          3       1    1dxy              2.062000      10.115218
                                                         0.662000       0.000000
                          3       1    1dxz              2.062000      10.115218
                                                         0.662000       0.000000
                          3       1    1dy2              2.062000       5.840024
                                                         0.662000       0.000000
                          3       1    1dyz              2.062000      10.115218
                                                         0.662000       0.000000
                          3       1    1dz2              2.062000       5.840024
                                                         0.662000       0.000000

                          3       2    2dx2              2.062000       0.000000
                                                         0.662000       0.799670
                          3       2    2dxy              2.062000       0.000000
                                                         0.662000       1.385069
                          3       2    2dxz              2.062000       0.000000
                                                         0.662000       1.385069
                          3       2    2dy2              2.062000       0.000000
                                                         0.662000       0.799670
                          3       2    2dyz              2.062000       0.000000
                                                         0.662000       1.385069
                          3       2    2dz2              2.062000       0.000000
                                                         0.662000       0.799670

                          4       1    1fx3              1.397000       3.123535
                          4       1    1fx2y             1.397000       6.984436
                          4       1    1fx2z             1.397000       6.984436
                          4       1    1fxy2             1.397000       6.984436
                          4       1    1fxyz             1.397000      12.097399
                          4       1    1fxz2             1.397000       6.984436
                          4       1    1fy3              1.397000       3.123535
                          4       1    1fy2z             1.397000       6.984436
                          4       1    1fyz2             1.397000       6.984436
                          4       1    1fz3              1.397000       3.123535

     RI Auxiliary Basis Set                                        cc-pVQZ-RIFIT

       Number of orbital shell sets:                                          15
       Number of orbital shells:                                              15
       Number of primitive Cartesian functions:                               15
       Number of Cartesian basis functions:                                   70
       Number of spherical basis functions:                                   55
       Norm type:                                                              2

       Normalised Cartesian orbitals:

                        Set   Shell   Orbital            Exponent    Coefficient

                          1       1    1px               0.224508       0.220283
                          1       1    1py               0.224508       0.220283
                          1       1    1pz               0.224508       0.220283

                          2       1    1s                0.227635       0.234877

                          3       1    1s                0.433111       0.380504

                          4       1    1px               0.516293       0.623822
                          4       1    1py               0.516293       0.623822
                          4       1    1pz               0.516293       0.623822

                          5       1    1dx2              0.527598       0.537577
                          5       1    1dxy              0.527598       0.931110
                          5       1    1dxz              0.527598       0.931110
                          5       1    1dy2              0.527598       0.537577
                          5       1    1dyz              0.527598       0.931110
                          5       1    1dz2              0.527598       0.537577

                          6       1    1fx3              0.671931       0.601776
                          6       1    1fx2y             0.671931       1.345612
                          6       1    1fx2z             0.671931       1.345612
                          6       1    1fxy2             0.671931       1.345612
                          6       1    1fxyz             0.671931       2.330669
                          6       1    1fxz2             0.671931       1.345612
                          6       1    1fy3              0.671931       0.601776
                          6       1    1fy2z             0.671931       1.345612
                          6       1    1fyz2             0.671931       1.345612
                          6       1    1fz3              0.671931       0.601776

                          7       1    1dx2              1.017710       1.697272
                          7       1    1dxy              1.017710       2.939762
                          7       1    1dxz              1.017710       2.939762
                          7       1    1dy2              1.017710       1.697272
                          7       1    1dyz              1.017710       2.939762
                          7       1    1dz2              1.017710       1.697272

                          8       1    1s                1.182483       0.808177

                          9       1    1px               1.228568       1.843695
                          9       1    1py               1.228568       1.843695
                          9       1    1pz               1.228568       1.843695

                         10       1    1fx3              1.896433       6.213178
                         10       1    1fx2y             1.896433      13.893089
                         10       1    1fx2z             1.896433      13.893089
                         10       1    1fxy2             1.896433      13.893089
                         10       1    1fxyz             1.896433      24.063536
                         10       1    1fxz2             1.896433      13.893089
                         10       1    1fy3              1.896433       6.213178
                         10       1    1fy2z             1.896433      13.893089
                         10       1    1fyz2             1.896433      13.893089
                         10       1    1fz3              1.896433       6.213178

                         11       1    1gx4              2.130883       8.911979
                         11       1    1gx3y             2.130883      23.578879
                         11       1    1gx3z             2.130883      23.578879
                         11       1    1gx2y2            2.130883      30.440202
                         11       1    1gx2yz            2.130883      52.723977
                         11       1    1gx2z2            2.130883      30.440202
                         11       1    1gxy3             2.130883      23.578879
                         11       1    1gxy2z            2.130883      52.723977
                         11       1    1gxyz2            2.130883      52.723977
                         11       1    1gxz3             2.130883      23.578879
                         11       1    1gy4              2.130883       8.911979
                         11       1    1gy3z             2.130883      23.578879
                         11       1    1gy2z2            2.130883      30.440202
[...]
 -                                                                             -
 -                                T I M I N G                                  -
 -                                                                             -
 -------------------------------------------------------------------------------
 SUBROUTINE                       CALLS  ASD         SELF TIME        TOTAL TIME
                                MAXIMUM       AVERAGE  MAXIMUM  AVERAGE  MAXIMUM
 CP2K                                 1  1.0    0.058    0.087  818.859  818.859
 qs_energies                          1  2.0    0.001    0.001  815.163  815.164
 qs_energies_properties               1  3.0    0.000    0.000  524.324  524.324
 tddfpt                               1  4.0    0.000    0.000  524.324  524.324
 tddfpt_energies                      1  5.0    0.000    0.001  524.110  524.110
 tddfpt_davidson_solver               1  6.0    0.002    0.004  519.319  519.319
 tddfpt_compute_Aop_evects           10  7.0    0.000    0.000  515.331  515.331
 integrate_four_center              479  9.8   11.652   15.230  411.360  411.545
 integrate_four_center_main         479 10.8    1.792    4.886  297.542  312.200
 integrate_four_center_bin        61166 11.8  295.750  311.167  295.750  311.167
 scf_env_do_scf                       1  3.0    0.000    0.000  286.968  286.978
 scf_env_do_scf_inner_loop           79  4.0    0.002    0.006  286.968  286.978
 fhxc_kernel                         10  8.0    0.009    0.011  266.624  266.624
 qs_ks_update_qs_env                 79  5.0    0.001    0.001  247.724  247.786
 rebuild_ks_matrix                   79  6.0    0.000    0.000  247.714  247.776
 qs_ks_build_kohn_sham_matrix        79  7.0    0.012    0.014  247.713  247.775
 tddfpt_apply_hfx                    10  8.0    0.004    0.005  246.900  246.900
 tddft_hfx_matrix                   400  9.0    0.011    0.012  240.929  241.096
 hfx_ks_matrix                       79  8.0    0.003    0.004  170.449  170.521
 fft_wrap_pw1pw2                   5673 11.1    0.090    0.124  101.776  103.133
 pw_poisson_solve                   279  9.4    1.618    1.746  100.417  101.567
 tddfpt_apply_coulomb               200  9.0    0.004    0.005   97.196   98.342
 fft_wrap_pw1pw2_250               3993 12.1    2.754    2.969   96.778   98.161
 fft3d_ps                          5673 13.1   26.414   28.291   89.895   91.737
 qs_rho_update_rho_low              281  7.9    0.003    0.004   76.556   76.577
 integrate_v_rspace                 279  9.0    0.007    0.008   74.349   74.683
 calculate_rho_elec                 281  8.9    0.612    0.656   68.455   68.476
 mp_alltoall_z22v                  5673 15.1   56.872   67.534   56.872   67.534
 ps_wavelet_solve                   279 10.4   28.068   40.620   62.156   62.395
 mp_alltoall_d11v                 17636 11.6   52.786   57.735   52.786   57.735
 density_rs2pw                      281  9.9    0.016    0.019   50.285   55.238
 rs_gather_matrices                 279 10.0    0.031    0.043   45.820   47.648
 transfer_rs2pw                    1405 10.8    0.032    0.067   42.727   47.633
 grid_integrate_task_list           279 10.0    1.744   46.814    1.744   46.814
 mp_sync                           2534 11.5   33.343   46.372   33.343   46.372
 calc_screening_functions             1 10.0   34.831   37.245   41.680   44.153
 x_to_yz                           2315 13.7    2.714    3.054   39.561   41.832
 mp_waitany                       70602 12.8   36.040   41.269   36.040   41.269
 grid_collocate_task_list           281  9.9   16.501   39.013   16.501   39.013
 xc_pw_derive                      1677 11.0    0.015    0.020   36.895   38.512
 mp_alltoall_d54                    279 11.4   15.563   38.359   15.563   38.359
 transfer_rs2pw_250                 562 11.8    4.459    5.046   28.318   35.906
 prepare_gapw_den                   280  8.7    0.008    0.010   32.754   32.956
 tddfpt_apply_xc_analytic           200  9.0    0.139    0.174   32.399   32.558
 yz_to_x                           2238 14.5    2.048    2.514   21.880   27.886
 potential_pw2rs                    279 10.0    0.058    0.078   26.777   27.154
 xc_pw_divergence                   279 10.7    0.008    0.010   24.687   26.004
 transfer_pw2rs                    1396 10.9    0.020    0.025   24.169   24.441
 gaVxcgb_GC                         558  9.7    0.576   21.083    0.576   21.083
 mp_alltoall_d45                    280 11.4   18.344   21.006   18.344   21.006
 mp_waitall_1                    567694 13.2   17.744   20.936   17.744   20.936
 sum_up_and_integrate                79  8.0    0.001    0.001   20.569   20.607
 calculate_xc_2nd_deriv_atom        200  9.0    0.184    3.555    0.637   19.133
 xc_calc_2nd_deriv_analytical      1000 10.2    0.974    1.129   18.972   19.060
 calculate_rho_atom                1400  9.7    7.133   18.034    7.133   18.034
 integrate_vhg0_rspace              279  9.4    1.470    1.650   15.779   15.892
 mp_sum_dm                        16936 10.0   14.960   15.299   14.960   15.299
 mp_sum_d                         17103  7.2   10.649   14.404   10.649   14.404
 qs_vxc_create                       79  8.0    0.001    0.001   13.850   13.851
 xc_vxc_pw_create                    79  9.0    0.222    0.255   13.849   13.850
 cp_fm_syevd                        132  7.2    0.001    0.001   13.504   13.525
 transfer_pw2rs_250                 559 11.7    4.136    4.513   13.013   13.472
 put_rho0_on_grid                   280  9.7    0.667    0.931   13.148   13.349
 cp_fm_redistribute_end             132  8.2    6.731   13.312    6.747   13.322
 cp_fm_syevd_base                   132  8.2    6.562   13.149    6.562   13.149
 powell_optimize                4999059 11.0   12.399   12.991   12.399   12.991
 mp_sum_dv                        49622  8.8   12.014   12.633   12.014   12.633
 qs_scf_new_mos                      79  5.0    0.001    0.001   11.923   11.958
 cp_dbcsr_sm_fm_multiply           1246  8.6    0.026    0.030   11.108   11.304
 eigensolver_symm                    79  6.0    0.003    0.004   10.925   10.936
 transfer_rs2pw_90                  281 11.9    0.809    0.992    6.344    9.875
 integrate_four_center_getP         479 10.8    1.064    1.468    9.171    9.262
 calc_pair_dist_radii                 1 10.0    2.680    2.770    8.230    8.576
 mp_isendrecv_dv                 325940 12.3    3.415    8.562    3.415    8.562
 integrate_four_center_dist_KS      479 10.8    0.435    0.484    8.185    8.201
 calculate_rho_atom_coeff           281  8.9    0.263    0.435    8.098    8.098
 dbcsr_complete_redistribute       4156 10.5    0.194    0.304    6.810    7.086
 xc_rho_set_and_dset_create          80 10.0    0.180    0.224    6.373    6.832
 calculate_vxc_atom                  79  8.0    0.086    0.745    6.776    6.776
 transfer_rs2pw_30                  281 11.9    2.659    2.784    6.154    6.273
 transfer_pw2rs_30                  279 12.0    2.560    2.808    5.857    6.171
 gspace_mixing                       78  5.0    0.169    0.182    6.150    6.150
 dbcsr_multiply_generic            1725 10.3    0.083    0.094    4.969    5.442
 copy_dbcsr_to_fm                  1349  9.3    0.019    0.021    4.764    5.190
 mp_sendrecv_dv                  120830 12.9    4.696    4.896    4.696    4.896
 copy_fm_to_dbcsr                  2805  9.6    0.014    0.015    4.609    4.886
 broyden_mixing                      78  6.0    4.277    4.434    4.421    4.508
 pw_scatter_p                      2873 12.8    3.671    4.308    3.671    4.308
 cp_dbcsr_sm_fm_multiply_core      1246  9.6    0.003    0.004    3.676    4.134
 tddfpt_print_nto_analysis            1  6.0    0.003    0.006    4.099    4.100
 mp_sum_l                          6565 10.6    3.152    4.037    3.152    4.037
 transfer_pw2rs_90                  279 12.0    0.729    0.843    3.318    3.879
 pw_gather_p                       2800 13.4    3.087    3.630    3.087    3.630
 integrate_four_center_load         479 10.8    0.002    0.003    2.662    3.570
 hfx_load_balance                     1 11.0    0.000    0.000    2.660    3.568
 cp2k_distribution_to_z_slices      279 10.4    1.302    1.432    2.894    3.536
 hfx_load_balance_range               1 12.0    0.000    0.000    2.626    3.534
 fft_wrap_pw1pw2_90                 560 11.9    0.084    0.160    3.070    3.473
 rs_grid_zero                      1398 11.9    3.371    3.442    3.371    3.442
 multiply_cannon                   1725 11.3    0.218    0.227    3.024    3.395
 cp_fm_geeig                         20  7.0    0.001    0.001    3.377    3.379
 qs_energies_init_hamiltonians        1  3.0    0.000    0.000    3.293    3.293
 build_core_hamiltonian_matrix        1  4.0    0.000    0.000    3.280    3.281
 overlap_condnum                      1  5.0    0.000    0.001    3.265    3.278
 mp_alltoall_i11v                 13818 11.5    3.071    3.075    3.071    3.075
 create_qs_kind_set                   1  2.0    0.000    0.000    3.064    3.064
 read_qs_kind                         5  3.0    1.739    1.769    3.064    3.064
 arnoldi_conjugate_gradient           5  6.0    0.064    0.078    3.017    3.017
 pw_derive                         2514 11.8    2.756    2.967    2.756    2.967
 dbcsr_desymmetrize_deep           1350 10.3    0.039    0.054    2.423    2.844
 multiply_cannon_loop              1725 12.3    0.407    0.438    2.339    2.804
 Vh_1c_gg_integrals                 279  9.4    0.098    1.748    1.884    2.547
 cp_dbcsr_plus_fm_fm_t              279  8.4    0.005    0.005    2.179    2.231
 tddfpt_orthonormalize_psi1_psi      11  6.9    0.029    0.031    2.207    2.208
 parallel_gemm_fm                  1835  8.3    0.003    0.003    2.059    2.087
 parallel_gemm_fm_gemm             1835  9.3    0.002    0.003    2.057    2.084
 cp_fm_gemm                        1835 10.3    2.054    2.082    2.054    2.082
 transfer_pw2rs_10                  279 12.0    0.669    0.841    1.961    2.081
 pw_copy                           3790 11.0    1.917    2.074    1.917    2.074
 dbcsr_sym_matrix_vector_mult      9555  7.0    0.152    0.166    1.742    1.919
 transfer_rs2pw_10                  281 11.9    0.678    0.716    1.878    1.909
 mp_alltoall_i22                   5506 11.4    1.405    1.907    1.405    1.907
 tddfpt_apply_energy_diff            10  8.0    0.001    0.002    1.807    1.807
 mp_isend_dv                     184045 13.8    0.985    1.720    0.985    1.720
 xc_functional_eval                1196 10.9    0.001    0.005    1.017    1.699
 pbe_lda_eval                      1196 11.9    1.016    1.694    1.016    1.694
 pw_poisson_set                     280 10.4    0.007    0.008    1.664    1.685
 mp_irecv_dm3                     10086 12.8    0.691    1.630    0.691    1.630
 calculate_rho0_atom               1400  9.7    1.505    1.545    1.505    1.545
 tddfpt_compute_residual_vects        9  7.0    0.001    0.001    1.542    1.543
 pw_copy_to_array                  2800 13.4    1.304    1.538    1.304    1.538
 mp_isend_dm3                     10086 12.8    0.659    1.453    0.659    1.453
 multiply_cannon_metrocomm3       62100 13.3    0.102    0.107    0.657    1.416
 make_m2s                          3450 11.3    0.071    0.085    1.178    1.364
 parser_read_line                370013  4.0    0.124    0.136    1.325    1.355
 update_ks_atom                     279  8.7    0.201    0.418    1.139    1.328
 mp_alltoall_z11v                  1120 14.9    1.253    1.296    1.253    1.296
 hybrid_alltoall_any               4800 13.5    0.047    0.074    1.107    1.285
 pw_integral_ab_c1d_c1d_gs          279 10.4    0.906    0.914    1.150    1.259
 fft_wrap_pw1pw2_30                 560 11.9    0.016    0.017    1.202    1.255
 parser_read_line_low               397  5.0    0.111    0.523    1.201    1.234
 pw_axpy                           2998 10.8    1.036    1.172    1.036    1.172
 broadcast_input_information        397  6.0    0.269    0.305    1.090    1.168
 make_images                       3450 12.3    0.206    0.310    0.989    1.159
 multiply_cannon_metrocomm1       62100 13.3    0.072    0.076    0.408    1.124
 pw_copy_from_array                2873 12.8    0.869    1.106    0.869    1.106
 pw_zero                           3080 10.6    0.890    1.050    0.890    1.050
 mp_max_i                           780  5.2    0.411    1.043    0.411    1.043
 mp_bcast_dm                      11160  9.7    0.938    0.973    0.938    0.973
 dbcsr_finalize                   22856 11.3    0.056    0.215    0.326    0.915
 yz_to_xz                           558 14.0    0.050    0.057    0.858    0.899
 dbcsr_add_d                      14394  7.0    0.013    0.015    0.132    0.873
 dbcsr_add_anytype                14394  8.0    0.018    0.114    0.119    0.857
 dbcsr_rep_row_to_rep_col_vec      9555  8.0    0.052    0.073    0.356    0.773
 multiply_cannon_metrocomm4       58650 13.3    0.174    0.188    0.406    0.761
 dbcsr_col_vec_to_rep_row          9555  8.0    0.069    0.082    0.554    0.696
 calculate_dm_sparse                 79  6.0    0.001    0.001    0.624    0.660
 fft_wrap_pw1pw2_10                 560 11.9    0.006    0.006    0.636    0.645
 pw_poisson_rebuild                 279 10.4    0.000    0.001    0.605    0.629
 ps_wavelet_create                    1 10.0    0.000    0.000    0.605    0.629
 RS_z_slice_distribution              1 11.0    0.500    0.535    0.605    0.629
 multiply_cannon_multrec          62100 13.3    0.137    0.615    0.145    0.625
 rs_scatter_matrices                281  9.9    0.005    0.012    0.595    0.615
 mp_bcast_i_src                    1588  7.0    0.300    0.601    0.300    0.601
 mp_bcast_am_src                    397  7.0    0.473    0.555    0.504    0.592
 dbcsr_merge_all                  20671 12.3    0.158    0.352    0.218    0.572
 cp_fm_trace_a1b1t1_aa            20310  8.0    0.100    0.118    0.514    0.522
 mp_irecv_dv                     184720 13.8    0.202    0.517    0.202    0.517
 init_scf_run                         1  3.0    0.000    0.001    0.507    0.507
 qs_init_subsys                       1  2.0    0.006    0.007    0.495    0.496
 xz_to_yz                           562 13.9    0.033    0.038    0.479    0.485
 mp_rank_compare                   5673 14.1    0.463    0.484    0.463    0.484
 mp_allgather_i34                  1725 12.3    0.337    0.459    0.337    0.459
 offload_free_buffer                287 10.2    0.341    0.448    0.341    0.448
 make_images_sizes                 3450 13.3    0.004    0.005    0.406    0.438
 qs_env_setup                         1  3.0    0.000    0.000    0.419    0.437
 qs_env_rebuild_pw_env                2  3.5    0.000    0.000    0.418    0.435
 pw_env_rebuild                       1  5.0    0.001    0.001    0.418    0.435
 mp_bcast_dv                       9687  9.0    0.270    0.435    0.270    0.435
 mp_alltoall_i44                   3450 14.3    0.402    0.434    0.402    0.434
 cp_fm_symm                          79  7.0    0.420    0.433    0.420    0.433
 make_images_data                  3450 13.3    0.046    0.058    0.192    0.428
 tddfpt_construct_ground_state_       1  6.0    0.000    0.000    0.382    0.383
 multiply_cannon_metrocomm2       56925 13.3    0.169    0.179    0.317    0.379
 xc_2nd_deriv_of_r                  800 10.0    0.003    0.061    0.016    0.363
 scf_env_initial_rho_setup            1  4.0    0.000    0.000    0.361    0.362
 cp_fm_triangular_multiply           60  8.0    0.346    0.350    0.346    0.350
 prepare_dr1dr                     1000 11.2    0.301    0.341    0.301    0.341
 scale_and_distribute               558 11.4    0.286    0.308    0.286    0.308
 dbcsr_iterator_start            140593  9.5    0.163    0.237    0.197    0.304
 mp_cart_sub                       2702 11.3    0.301    0.303    0.301    0.303
 dbcsr_copy                       42572  7.9    0.153    0.174    0.261    0.295
 dbcsr_create_new                 73990 10.3    0.207    0.217    0.271    0.283
 mp_cart_create                    2749 10.5    0.209    0.234    0.211    0.238
 dbcsr_sym_matrix_vector_mult_l    9555  8.0    0.067    0.202    0.097    0.228
 compute_max_radius                   1  6.0    0.206    0.224    0.206    0.224
 cp_fm_redistribute_start           132  8.2    0.144    0.155    0.194    0.217
 cp_fm_cholesky_decompose            21  8.0    0.214    0.215    0.214    0.215
 pw_grid_setup                        4  6.0    0.000    0.000    0.188    0.205
 pw_grid_setup_internal               4  7.0    0.003    0.005    0.188    0.205
 tddfpt_compute_ritz_vects           10  7.0    0.009    0.010    0.200    0.201
 dbcsr_iterator_stop             140593  9.5    0.121    0.166    0.147    0.198
 cp_fm_triangular_invert             20  8.0    0.179    0.180    0.179    0.180
 cp_fm_power                          1  6.0    0.001    0.002    0.163    0.164
 tree_to_linear_d                  4156 13.5    0.040    0.163    0.040    0.163
 pw_scale                           716  9.5    0.129    0.151    0.129    0.151
 dbcsr_special_finalize            8625 13.3    0.034    0.037    0.107    0.149
 tddfpt_init_mos                      1  5.0    0.000    0.000    0.148    0.149
 tddfpt_init_ground_state_mos         1  6.0    0.000    0.000    0.148    0.149
 dbcsr_work_create                30646 12.4    0.042    0.088    0.065    0.139
 dbcsr_destroy                    54805 10.2    0.066    0.102    0.096    0.139
 cube_transpose_2                   562 13.9    0.011    0.012    0.115    0.135
 eigensolver                          1  7.0    0.000    0.000    0.134    0.134
 create_fast_row_vec_access       19110  8.0    0.080    0.087    0.122    0.130
 create_fast_col_vec_access       19110  8.0    0.079    0.086    0.121    0.129
 tddfpt_orthogonalize_psi1_psi0      11  6.9    0.000    0.001    0.117    0.127
 dbcsr_work_destroy_all           30646 13.3    0.038    0.085    0.052    0.119
 dbcsr_data_release              363786 11.5    0.084    0.119    0.084    0.119
 copy_fm_to_dbcsr_bc               2805 10.6    0.035    0.040    0.101    0.113
 dbcsr_data_new                  199304 12.2    0.076    0.107    0.076    0.107
 mp_isend_iv                     125971 14.3    0.097    0.107    0.097    0.107
 cube_transpose_1                   558 14.0    0.009    0.011    0.099    0.107
 dbcsr_merge_single_wm             8625 14.3    0.046    0.057    0.061    0.103
 create_kernel_env                    1  6.0    0.000    0.000    0.093    0.100
 xc_prep_2nd_deriv                    1  7.0    0.000    0.000    0.093    0.100
 vxc_of_r_new                       316  9.0    0.001    0.015    0.004    0.097
 pw_grid_sort                         4  8.0    0.043    0.057    0.067    0.095
 cp_fm_write_unformatted             44  7.5    0.052    0.080    0.055    0.093
 dbcsr_make_images_dense            958 11.7    0.018    0.023    0.049    0.089
 mp_bcast_iv                        452  7.3    0.032    0.082    0.032    0.082
 -------------------------------------------------------------------------------

 The number of warnings for this run is : 2
 
 -------------------------------------------------------------------------------
  **** **** ******  **  PROGRAM ENDED AT                 2025-04-02 12:18:42.968
 ***** ** ***  *** **   PROGRAM RAN ON                              i08r01c06s01
 **    ****   ******    PROGRAM RAN BY                                   di38fab
 ***** **    ** ** **   PROGRAM PROCESS ID                               1704180
  **** **  *******  **  PROGRAM STOPPED IN /hppfs/scratch/04/di38fab/07_MOL_non_
                                           aug/05_MOL_non_aug/05_MOL/aUKBqsEOTmq
                                           69kFe5R_nOg/5k_set_final_qzvp/NIWSOC/
                                           cc-pVQZ/TDDFT
