 DBCSR| CPU Multiplication driver                                           BLAS (U)
 DBCSR| Multrec recursion limit                                              512 (U)
 DBCSR| Multiplication stack size                                           1000 (D)
 DBCSR| Maximum elements for images                                    UNLIMITED (U)
 DBCSR| Multiplicative factor virtual images                                   1 (U)
 DBCSR| Use multiplication densification                                       T (D)
 DBCSR| Multiplication size stacks                                             3 (U)
 DBCSR| Use memory pool for CPU allocation                                     F (U)
 DBCSR| Number of 3D layers                                               SINGLE (U)
 DBCSR| Use MPI memory allocation                                              F (U)
 DBCSR| Use RMA algorithm                                                      F (U)
 DBCSR| Use Communication thread                                               T (U)
 DBCSR| Communication thread load                                             75 (D)
 DBCSR| MPI: My process id                                                     0
 DBCSR| MPI: Number of processes                                             192
 DBCSR| OMP: Current number of threads                                         4
 DBCSR| OMP: Max number of threads                                             4
 DBCSR| Split modifier for TAS multiplication algorithm                  1.0E+00 (U)


  **** **** ******  **  PROGRAM STARTED AT               2025-04-14 03:38:01.365
 ***** ** ***  *** **   PROGRAM STARTED ON                          i01r02c05s10
 **    ****   ******    PROGRAM STARTED BY                               di38fab
 ***** **    ** ** **   PROGRAM PROCESS ID                                782535
  **** **  *******  **  PROGRAM STARTED IN /hppfs/scratch/04/di38fab/05_MOL/W4-1
                                           1+ALK/li8/aug-cc-pV5Z/TDDFT

 CP2K| version string:                 CP2K version 2025.1 (Development Version)
 CP2K| source code revision number:                             unknown revision
 CP2K| cp2kflags: omp libint fftw3 libxc parallel scalapack max_contr=4         
 CP2K| is freely available from                            https://www.cp2k.org/
 CP2K| Program compiled at                         Thu Apr 10 16:20:23 CEST 2025
 CP2K| Program compiled on                                               login01
 CP2K| Program compiled for                                        Supermuc-foss
 CP2K| Data directory path                  /hppfs/work/pn36zo/di38fab/cp2k/data
 CP2K| Input file name                                                    GW.inp

 GLOBAL| Force Environment number                                              1
 GLOBAL| Basis set file name            /hppfs/scratch/04/di38fab/04_TMD/BASIS_A
 GLOBAL| Potential file name            /hppfs/work/pn36zo/di38fab/cp2k/data/ALL
 GLOBAL| MM Potential file name                                     MM_POTENTIAL
 GLOBAL| Coordinate file name                                      __STD_INPUT__
 GLOBAL| Method name                                                        CP2K
 GLOBAL| Project name                                                       MoS2
 GLOBAL| Run type                                                         ENERGY
 GLOBAL| FFT library                                                       FFTW3
 GLOBAL| Diagonalization library                                       ScaLAPACK
 GLOBAL| DGEMM library                                                      BLAS
 GLOBAL| Orthonormality check for eigenvectors                          DISABLED
 GLOBAL| Matrix multiplication library                                 ScaLAPACK
 GLOBAL| All-to-all communication in single precision                          F
 GLOBAL| FFTs using library dependent lengths                                  F
 GLOBAL| Grid backend                                                       AUTO
 GLOBAL| Global print level                                               MEDIUM
 GLOBAL| MPI I/O enabled                                                       T
 GLOBAL| Total number of message passing processes                           192
 GLOBAL| Number of threads for this process                                    4
 GLOBAL| This output is from process                                           0
 GLOBAL| OpenMP stack size per thread (OMP_STACKSIZE)                    default
 GLOBAL| CPU model name             Intel(R) Xeon(R) Platinum 8174 CPU @ 3.10GHz

 MEMORY| system memory details [Kb]
 MEMORY|                        rank 0           min           max       average
 MEMORY| MemTotal             98436664      98436660      98436708      98436668
 MEMORY| MemFree              83863252      83793840      85314212      84154690
 MEMORY| Buffers                     0             0             0             0
 MEMORY| Cached                2406348       2370632       2413596       2394130
 MEMORY| Slab                  1213216        995632       1256440       1180711
 MEMORY| SReclaimable           266440        222700        279768        264840
 MEMORY| MemLikelyFree        86536040      86457868      87918528      86813660


 *** Fundamental physical constants (SI units) ***

 *** Literature: B. J. Mohr and B. N. Taylor,
 ***             CODATA recommended values of the fundamental physical
 ***             constants: 2006, Web Version 5.1
 ***             http://physics.nist.gov/constants

 Speed of light in vacuum [m/s]                             2.99792458000000E+08
 Magnetic constant or permeability of vacuum [N/A**2]       1.25663706143592E-06
 Electric constant or permittivity of vacuum [F/m]          8.85418781762039E-12
 Planck constant (h) [J*s]                                  6.62606896000000E-34
 Planck constant (h-bar) [J*s]                              1.05457162825177E-34
 Elementary charge [C]                                      1.60217648700000E-19
 Electron mass [kg]                                         9.10938215000000E-31
 Electron g factor [ ]                                     -2.00231930436220E+00
 Proton mass [kg]                                           1.67262163700000E-27
 Fine-structure constant                                    7.29735253760000E-03
 Rydberg constant [1/m]                                     1.09737315685270E+07
 Avogadro constant [1/mol]                                  6.02214179000000E+23
 Boltzmann constant [J/K]                                   1.38065040000000E-23
 Atomic mass unit [kg]                                      1.66053878200000E-27
 Bohr radius [m]                                            5.29177208590000E-11

 *** Conversion factors ***

 [u] -> [a.u.]                                              1.82288848426455E+03
 [Angstrom] -> [Bohr] = [a.u.]                              1.88972613288564E+00
 [a.u.] = [Bohr] -> [Angstrom]                              5.29177208590000E-01
 [a.u.] -> [s]                                              2.41888432650478E-17
 [a.u.] -> [fs]                                             2.41888432650478E-02
 [a.u.] -> [J]                                              4.35974393937059E-18
 [a.u.] -> [N]                                              8.23872205491840E-08
 [a.u.] -> [K]                                              3.15774647902944E+05
 [a.u.] -> [kJ/mol]                                         2.62549961709828E+03
 [a.u.] -> [kcal/mol]                                       6.27509468713739E+02
 [a.u.] -> [Pa]                                             2.94210107994716E+13
 [a.u.] -> [bar]                                            2.94210107994716E+08
 [a.u.] -> [atm]                                            2.90362800883016E+08
 [a.u.] -> [eV]                                             2.72113838565563E+01
 [a.u.] -> [Hz]                                             6.57968392072181E+15
 [a.u.] -> [1/cm] (wave numbers)                            2.19474631370540E+05
 [a.u./Bohr**2] -> [1/cm]                                   5.14048714338585E+03
 

 CELL_TOP| Volume [angstrom^3]:                                     27000.000000
 CELL_TOP| Vector a [angstrom    30.000     0.000     0.000   |a| =    30.000000
 CELL_TOP| Vector b [angstrom     0.000    30.000     0.000   |b| =    30.000000
 CELL_TOP| Vector c [angstrom     0.000     0.000    30.000   |c| =    30.000000
 CELL_TOP| Angle (b,c), alpha [degree]:                                90.000000
 CELL_TOP| Angle (a,c), beta  [degree]:                                90.000000
 CELL_TOP| Angle (a,b), gamma [degree]:                                90.000000
 CELL_TOP| Numerically orthorhombic:                                         YES
 CELL_TOP| Periodicity                                                      NONE

 GENERATE|  Preliminary Number of Bonds generated:                             0
 GENERATE|  Achieved consistency in connectivity generation.

 CELL| Volume [angstrom^3]:                                         27000.000000
 CELL| Vector a [angstrom]:      30.000     0.000     0.000   |a| =    30.000000
 CELL| Vector b [angstrom]:       0.000    30.000     0.000   |b| =    30.000000
 CELL| Vector c [angstrom]:       0.000     0.000    30.000   |c| =    30.000000
 CELL| Angle (b,c), alpha [degree]:                                    90.000000
 CELL| Angle (a,c), beta  [degree]:                                    90.000000
 CELL| Angle (a,b), gamma [degree]:                                    90.000000
 CELL| Numerically orthorhombic:                                             YES
 CELL| Periodicity                                                          NONE

 CELL_REF| Volume [angstrom^3]:                                     27000.000000
 CELL_REF| Vector a [angstrom    30.000     0.000     0.000   |a| =    30.000000
 CELL_REF| Vector b [angstrom     0.000    30.000     0.000   |b| =    30.000000
 CELL_REF| Vector c [angstrom     0.000     0.000    30.000   |c| =    30.000000
 CELL_REF| Angle (b,c), alpha [degree]:                                90.000000
 CELL_REF| Angle (a,c), beta  [degree]:                                90.000000
 CELL_REF| Angle (a,b), gamma [degree]:                                90.000000
 CELL_REF| Numerically orthorhombic:                                         YES
 CELL_REF| Periodicity                                                      NONE

 *******************************************************************************
 *******************************************************************************
 **                                                                           **
 **     #####                         ##              ##                      **
 **    ##   ##            ##          ##              ##                      **
 **   ##     ##                       ##            ######                    **
 **   ##     ##  ##   ##  ##   #####  ##  ##   ####   ##    #####    #####    **
 **   ##     ##  ##   ##  ##  ##      ## ##   ##      ##   ##   ##  ##   ##   **
 **   ##  ## ##  ##   ##  ##  ##      ####     ###    ##   ######   ######    **
 **    ##  ###   ##   ##  ##  ##      ## ##      ##   ##   ##       ##        **
 **     #######   #####   ##   #####  ##  ##  ####    ##    #####   ##        **
 **           ##                                                    ##        **
 **                                                                           **
 **                                                ... make the atoms dance   **
 **                                                                           **
 **            Copyright (C) by CP2K developers group (2000-2025)             **
 **                      J. Chem. Phys. 152, 194103 (2020)                    **
 **                                                                           **
 *******************************************************************************

 DFT| Spin restricted Kohn-Sham (RKS) calculation                            RKS
 DFT| Multiplicity                                                             1
 DFT| Number of spin states                                                    1
 DFT| Charge                                                                   0
 DFT| Self-interaction correction (SIC)                                       NO
 DFT| Cutoffs: density                                              1.000000E-10
 DFT|          gradient                                             1.000000E-10
 DFT|          tau                                                  1.000000E-10
 DFT|          cutoff_smoothing_range                               0.000000E+00
 DFT| XC density smoothing                                                  NONE
 DFT| XC derivatives                                                          PW

 FUNCTIONAL| PBE:
 FUNCTIONAL| J.P.Perdew, K.Burke, M.Ernzerhof, Phys. Rev. Letter, vol. 77, n 18,
 FUNCTIONAL|  pp. 3865-3868, (1996)sx=0.750sc=1.000{spin unpolarized}           


 QS| Method:                                                                GAPW
 QS| Density plane wave grid type                        NON-SPHERICAL FULLSPACE
 QS| Number of grid levels:                                                    4
 QS| Density cutoff [a.u.]:                                                250.0
 QS| Multi grid cutoff [a.u.]: 1) grid level                               250.0
 QS|                           2) grid level                                83.3
 QS|                           3) grid level                                27.8
 QS|                           4) grid level                                 9.3
 QS| Grid level progression factor:                                          3.0
 QS| Relative density cutoff [a.u.]:                                        50.0
 QS| Interaction thresholds: eps_pgf_orb:                                1.0E-12
 QS|                         eps_filter_matrix:                          0.0E+00
 QS|                         eps_core_charge:                            1.0E-14
 QS|                         eps_rho_gspace:                             1.0E-12
 QS|                         eps_rho_rspace:                             1.0E-12
 QS|                         eps_gvg_rspace:                             1.0E-06
 QS|                         eps_ppl:                                    1.0E-02
 QS|                         eps_ppnl:                                   1.0E-08
 QS| GAPW|      One center basis from orbital basis primitives
 QS| GAPW|                   eps_fit:                                    1.0E-04
 QS| GAPW|                   eps_iso:                                    1.0E-12
 QS| GAPW|                   eps_svd:                                    1.0E-08
 QS| GAPW|                   eps_cpc:                                    1.0E-12
 QS| GAPW|   atom-r-grid: quadrature:                                     GC_LOG
 QS| GAPW|      atom-s-grid:  max l :                                         10
 QS| GAPW|      max_l_rho0 :                                                   2


 ATOMIC KIND INFORMATION

  1. Atomic kind: li                                    Number of atoms:       8

     Orbital Basis Set                                               aug-cc-pV5Z

       Number of orbital shell sets:                                          12
       Number of orbital shells:                                              27
       Number of primitive Cartesian functions:                               38
       Number of Cartesian basis functions:                                  182
       Number of spherical basis functions:                                  127
       Norm type:                                                              2

       Normalised Cartesian orbitals:

                        Set   Shell   Orbital            Exponent    Coefficient

                          1       1    1s                0.006100       0.015556

                          2       1    1px               0.006500       0.002631
                          2       1    1py               0.006500       0.002631
                          2       1    1pz               0.006500       0.002631

                          3       1    1px              19.663500       0.000000
                                                         4.623110       0.000000
                                                         1.413780       0.000000
                                                         0.473721       0.000000
                                                         0.176151       0.162666
                                                         0.072675       0.000000
                                                         0.032141       0.000000
                                                         0.014556       0.000000
                          3       1    1py              19.663500       0.000000
                                                         4.623110       0.000000
                                                         1.413780       0.000000
                                                         0.473721       0.000000
                                                         0.176151       0.162666
                                                         0.072675       0.000000
                                                         0.032141       0.000000
                                                         0.014556       0.000000
                          3       1    1pz              19.663500       0.000000
                                                         4.623110       0.000000
                                                         1.413780       0.000000
                                                         0.473721       0.000000
                                                         0.176151       0.162666
                                                         0.072675       0.000000
                                                         0.032141       0.000000
                                                         0.014556       0.000000

                          3       2    2px              19.663500       0.000000
                                                         4.623110       0.000000
                                                         1.413780       0.000000
                                                         0.473721       0.000000
                                                         0.176151       0.000000
                                                         0.072675       0.053786
                                                         0.032141       0.000000
                                                         0.014556       0.000000
                          3       2    2py              19.663500       0.000000
                                                         4.623110       0.000000
                                                         1.413780       0.000000
                                                         0.473721       0.000000
                                                         0.176151       0.000000
                                                         0.072675       0.053786
                                                         0.032141       0.000000
                                                         0.014556       0.000000
                          3       2    2pz              19.663500       0.000000
                                                         4.623110       0.000000
                                                         1.413780       0.000000
                                                         0.473721       0.000000
                                                         0.176151       0.000000
                                                         0.072675       0.053786
                                                         0.032141       0.000000
                                                         0.014556       0.000000

                          3       3    3px              19.663500       0.031872
                                                         4.623110       0.037347
                                                         1.413780       0.033337
                                                         0.473721       0.027564
                                                         0.176151       0.025158
                                                         0.072675       0.019368
                                                         0.032141       0.008571
                                                         0.014556       0.001124
                          3       3    3py              19.663500       0.031872
                                                         4.623110       0.037347
                                                         1.413780       0.033337
                                                         0.473721       0.027564
                                                         0.176151       0.025158
                                                         0.072675       0.019368
                                                         0.032141       0.008571
                                                         0.014556       0.001124
                          3       3    3pz              19.663500       0.031872
                                                         4.623110       0.037347
                                                         1.413780       0.033337
                                                         0.473721       0.027564
                                                         0.176151       0.025158
                                                         0.072675       0.019368
                                                         0.032141       0.008571
                                                         0.014556       0.001124

                          3       4    4px              19.663500       0.000000
                                                         4.623110       0.000000
                                                         1.413780       0.000000
                                                         0.473721       0.000000
                                                         0.176151       0.000000
                                                         0.072675       0.000000
                                                         0.032141       0.019398
                                                         0.014556       0.000000
                          3       4    4py              19.663500       0.000000
                                                         4.623110       0.000000
                                                         1.413780       0.000000
                                                         0.473721       0.000000
                                                         0.176151       0.000000
                                                         0.072675       0.000000
                                                         0.032141       0.019398
                                                         0.014556       0.000000
                          3       4    4pz              19.663500       0.000000
                                                         4.623110       0.000000
                                                         1.413780       0.000000
                                                         0.473721       0.000000
                                                         0.176151       0.000000
                                                         0.072675       0.000000
                                                         0.032141       0.019398
                                                         0.014556       0.000000

                          3       5    5px              19.663500       0.000000
                                                         4.623110       0.000000
                                                         1.413780       0.000000
                                                         0.473721       0.000000
                                                         0.176151       0.000000
                                                         0.072675       0.000000
                                                         0.032141       0.000000
                                                         0.014556       0.007207
                          3       5    5py              19.663500       0.000000
                                                         4.623110       0.000000
                                                         1.413780       0.000000
                                                         0.473721       0.000000
                                                         0.176151       0.000000
                                                         0.072675       0.000000
                                                         0.032141       0.000000
                                                         0.014556       0.007207
                          3       5    5pz              19.663500       0.000000
                                                         4.623110       0.000000
                                                         1.413780       0.000000
                                                         0.473721       0.000000
                                                         0.176151       0.000000
                                                         0.072675       0.000000
                                                         0.032141       0.000000
                                                         0.014556       0.007207

                          4       1    1s            29493.000000       0.028872
                                                      4417.101000       0.054448
                                                      1005.223000       0.094027
                                                       284.700900       0.153477
                                                        92.865430       0.237406
                                                        33.511790       0.344162
                                                        13.041800       0.450825
                                                         5.357536       0.500890
                                                         2.279338       0.434757
                                                         0.993990       0.245466
                                                         0.433471       0.054355
                                                         0.095566       0.000652
                                                         0.044657      -0.000145
                                                         0.020633       0.000032

                          4       2    2s            29493.000000       0.000000
                                                      4417.101000       0.000000
                                                      1005.223000       0.000000
                                                       284.700900       0.000000
                                                        92.865430       0.000000
                                                        33.511790       0.000000
                                                        13.041800       0.000000
                                                         5.357536       0.000000
                                                         2.279338       0.000000
                                                         0.993990       0.000000
                                                         0.433471       0.380741
                                                         0.095566       0.000000
                                                         0.044657       0.000000
                                                         0.020633       0.000000

                          4       3    3s            29493.000000       0.000000
                                                      4417.101000       0.000000
                                                      1005.223000       0.000000
                                                       284.700900       0.000000
                                                        92.865430       0.000000
                                                        33.511790       0.000000
                                                        13.041800       0.000000
                                                         5.357536       0.000000
                                                         2.279338       0.000000
                                                         0.993990       0.000000
                                                         0.433471       0.000000
                                                         0.095566       0.122500
                                                         0.044657       0.000000
                                                         0.020633       0.000000

                          4       4    4s            29493.000000       0.000000
                                                      4417.101000       0.000000
                                                      1005.223000       0.000000
                                                       284.700900       0.000000
                                                        92.865430       0.000000
                                                        33.511790       0.000000
                                                        13.041800       0.000000
                                                         5.357536       0.000000
                                                         2.279338       0.000000
                                                         0.993990       0.000000
                                                         0.433471       0.000000
                                                         0.095566       0.000000
                                                         0.044657       0.069235
                                                         0.020633       0.000000

                          4       5    5s            29493.000000      -0.004812
                                                      4417.101000      -0.008495
                                                      1005.223000      -0.014632
                                                       284.700900      -0.024056
                                                        92.865430      -0.037226
                                                        33.511790      -0.054796
                                                        13.041800      -0.073015
                                                         5.357536      -0.085849
                                                         2.279338      -0.082176
                                                         0.993990      -0.068042
                                                         0.433471      -0.039586
                                                         0.095566       0.037626
                                                         0.044657       0.040089
                                                         0.020633       0.008661

                          4       6    6s            29493.000000       0.000000
                                                      4417.101000       0.000000
                                                      1005.223000       0.000000
                                                       284.700900       0.000000
                                                        92.865430       0.000000
                                                        33.511790       0.000000
                                                        13.041800       0.000000
                                                         5.357536       0.000000
                                                         2.279338       0.000000
                                                         0.993990       0.000000
                                                         0.433471       0.000000
                                                         0.095566       0.000000
                                                         0.044657       0.000000
                                                         0.020633       0.038800

                          5       1    1dx2              0.023500       0.002322
                          5       1    1dxy              0.023500       0.004021
                          5       1    1dxz              0.023500       0.004021
                          5       1    1dy2              0.023500       0.002322
                          5       1    1dyz              0.023500       0.004021
                          5       1    1dz2              0.023500       0.002322

                          6       1    1fx3              0.044800       0.001359
                          6       1    1fx2y             0.044800       0.003040
                          6       1    1fx2z             0.044800       0.003040
                          6       1    1fxy2             0.044800       0.003040
                          6       1    1fxyz             0.044800       0.005265
                          6       1    1fxz2             0.044800       0.003040
                          6       1    1fy3              0.044800       0.001359
                          6       1    1fy2z             0.044800       0.003040
                          6       1    1fyz2             0.044800       0.003040
                          6       1    1fz3              0.044800       0.001359

                          7       1    1dx2              0.531000       0.543657
                                                         0.248100       0.000000
                                                         0.115900       0.000000
                                                         0.054200       0.000000
                          7       1    1dxy              0.531000       0.941641
                                                         0.248100       0.000000
                                                         0.115900       0.000000
                                                         0.054200       0.000000
                          7       1    1dxz              0.531000       0.941641
                                                         0.248100       0.000000
                                                         0.115900       0.000000
                                                         0.054200       0.000000
                          7       1    1dy2              0.531000       0.543657
                                                         0.248100       0.000000
                                                         0.115900       0.000000
                                                         0.054200       0.000000
                          7       1    1dyz              0.531000       0.941641
                                                         0.248100       0.000000
                                                         0.115900       0.000000
                                                         0.054200       0.000000
                          7       1    1dz2              0.531000       0.543657
                                                         0.248100       0.000000
                                                         0.115900       0.000000
                                                         0.054200       0.000000

                          7       2    2dx2              0.531000       0.000000
                                                         0.248100       0.143551
                                                         0.115900       0.000000
                                                         0.054200       0.000000
                          7       2    2dxy              0.531000       0.000000
                                                         0.248100       0.248638
                                                         0.115900       0.000000
                                                         0.054200       0.000000
                          7       2    2dxz              0.531000       0.000000
                                                         0.248100       0.248638
                                                         0.115900       0.000000
                                                         0.054200       0.000000
                          7       2    2dy2              0.531000       0.000000
                                                         0.248100       0.143551
                                                         0.115900       0.000000
                                                         0.054200       0.000000
                          7       2    2dyz              0.531000       0.000000
                                                         0.248100       0.248638
                                                         0.115900       0.000000
                                                         0.054200       0.000000
                          7       2    2dz2              0.531000       0.000000
                                                         0.248100       0.143551
                                                         0.115900       0.000000
                                                         0.054200       0.000000

                          7       3    3dx2              0.531000       0.000000
                                                         0.248100       0.000000
                                                         0.115900       0.037893
                                                         0.054200       0.000000
                          7       3    3dxy              0.531000       0.000000
                                                         0.248100       0.000000
                                                         0.115900       0.065632
                                                         0.054200       0.000000
                          7       3    3dxz              0.531000       0.000000
                                                         0.248100       0.000000
                                                         0.115900       0.065632
                                                         0.054200       0.000000
                          7       3    3dy2              0.531000       0.000000
                                                         0.248100       0.000000
                                                         0.115900       0.037893
                                                         0.054200       0.000000
                          7       3    3dyz              0.531000       0.000000
                                                         0.248100       0.000000
                                                         0.115900       0.065632
                                                         0.054200       0.000000
                          7       3    3dz2              0.531000       0.000000
                                                         0.248100       0.000000
                                                         0.115900       0.037893
                                                         0.054200       0.000000

                          7       4    4dx2              0.531000       0.000000
                                                         0.248100       0.000000
                                                         0.115900       0.000000
                                                         0.054200       0.010021
                          7       4    4dxy              0.531000       0.000000
                                                         0.248100       0.000000
                                                         0.115900       0.000000
                                                         0.054200       0.017357
                          7       4    4dxz              0.531000       0.000000
                                                         0.248100       0.000000
                                                         0.115900       0.000000
                                                         0.054200       0.017357
                          7       4    4dy2              0.531000       0.000000
                                                         0.248100       0.000000
                                                         0.115900       0.000000
                                                         0.054200       0.010021
                          7       4    4dyz              0.531000       0.000000
                                                         0.248100       0.000000
                                                         0.115900       0.000000
                                                         0.054200       0.017357
                          7       4    4dz2              0.531000       0.000000
                                                         0.248100       0.000000
                                                         0.115900       0.000000
                                                         0.054200       0.010021

                          8       1    1gx4              0.072400       0.000814
                          8       1    1gx3y             0.072400       0.002154
                          8       1    1gx3z             0.072400       0.002154
                          8       1    1gx2y2            0.072400       0.002781
                          8       1    1gx2yz            0.072400       0.004817
                          8       1    1gx2z2            0.072400       0.002781
                          8       1    1gxy3             0.072400       0.002154
                          8       1    1gxy2z            0.072400       0.004817
                          8       1    1gxyz2            0.072400       0.004817
                          8       1    1gxz3             0.072400       0.002154
                          8       1    1gy4              0.072400       0.000814
                          8       1    1gy3z             0.072400       0.002154
                          8       1    1gy2z2            0.072400       0.002781
                          8       1    1gyz3             0.072400       0.002154
                          8       1    1gz4              0.072400       0.000814

                          9       1    1fx3              0.292000       0.092271
                                                         0.164100       0.000000
                                                         0.092200       0.000000
                          9       1    1fx2y             0.292000       0.206325
                                                         0.164100       0.000000
                                                         0.092200       0.000000
                          9       1    1fx2z             0.292000       0.206325
                                                         0.164100       0.000000
                                                         0.092200       0.000000
                          9       1    1fxy2             0.292000       0.206325
                                                         0.164100       0.000000
                                                         0.092200       0.000000
                          9       1    1fxyz             0.292000       0.357365
                                                         0.164100       0.000000
                                                         0.092200       0.000000
                          9       1    1fxz2             0.292000       0.206325
                                                         0.164100       0.000000
                                                         0.092200       0.000000
                          9       1    1fy3              0.292000       0.092271
                                                         0.164100       0.000000
                                                         0.092200       0.000000
                          9       1    1fy2z             0.292000       0.206325
                                                         0.164100       0.000000
                                                         0.092200       0.000000
                          9       1    1fyz2             0.292000       0.206325
                                                         0.164100       0.000000
                                                         0.092200       0.000000
                          9       1    1fz3              0.292000       0.092271
                                                         0.164100       0.000000
                                                         0.092200       0.000000

                          9       2    2fx3              0.292000       0.000000
                                                         0.164100       0.025232
                                                         0.092200       0.000000
                          9       2    2fx2y             0.292000       0.000000
                                                         0.164100       0.056420
                                                         0.092200       0.000000
                          9       2    2fx2z             0.292000       0.000000
                                                         0.164100       0.056420
                                                         0.092200       0.000000
                          9       2    2fxy2             0.292000       0.000000
                                                         0.164100       0.056420
                                                         0.092200       0.000000
                          9       2    2fxyz             0.292000       0.000000
                                                         0.164100       0.097722
                                                         0.092200       0.000000
                          9       2    2fxz2             0.292000       0.000000
                                                         0.164100       0.056420
                                                         0.092200       0.000000
                          9       2    2fy3              0.292000       0.000000
                                                         0.164100       0.025232
                                                         0.092200       0.000000
                          9       2    2fy2z             0.292000       0.000000
                                                         0.164100       0.056420
                                                         0.092200       0.000000
                          9       2    2fyz2             0.292000       0.000000
                                                         0.164100       0.056420
                                                         0.092200       0.000000
                          9       2    2fz3              0.292000       0.000000
                                                         0.164100       0.025232
                                                         0.092200       0.000000

                          9       3    3fx3              0.292000       0.000000
                                                         0.164100       0.000000
                                                         0.092200       0.006896
                          9       3    3fx2y             0.292000       0.000000
                                                         0.164100       0.000000
                                                         0.092200       0.015420
                          9       3    3fx2z             0.292000       0.000000
                                                         0.164100       0.000000
                                                         0.092200       0.015420
                          9       3    3fxy2             0.292000       0.000000
                                                         0.164100       0.000000
                                                         0.092200       0.015420
                          9       3    3fxyz             0.292000       0.000000
                                                         0.164100       0.000000
                                                         0.092200       0.026708
                          9       3    3fxz2             0.292000       0.000000
                                                         0.164100       0.000000
                                                         0.092200       0.015420
                          9       3    3fy3              0.292000       0.000000
                                                         0.164100       0.000000
                                                         0.092200       0.006896
                          9       3    3fy2z             0.292000       0.000000
                                                         0.164100       0.000000
                                                         0.092200       0.015420
                          9       3    3fyz2             0.292000       0.000000
                                                         0.164100       0.000000
                                                         0.092200       0.015420
                          9       3    3fz3              0.292000       0.000000
                                                         0.164100       0.000000
                                                         0.092200       0.006896

                         10       1    1hx5              0.127400       0.000917
                         10       1    1hx4y             0.127400       0.002750
                         10       1    1hx4z             0.127400       0.002750
                         10       1    1hx3y2            0.127400       0.004200
                         10       1    1hx3yz            0.127400       0.007275
                         10       1    1hx3z2            0.127400       0.004200
                         10       1    1hx2y3            0.127400       0.004200
                         10       1    1hx2y2z           0.127400       0.009392
                         10       1    1hx2yz2           0.127400       0.009392
                         10       1    1hx2z3            0.127400       0.004200
                         10       1    1hxy4             0.127400       0.002750
                         10       1    1hxy3z            0.127400       0.007275
                         10       1    1hxy2z2           0.127400       0.009392
                         10       1    1hxyz3            0.127400       0.007275
                         10       1    1hxz4             0.127400       0.002750
                         10       1    1hy5              0.127400       0.000917
                         10       1    1hy4z             0.127400       0.002750
                         10       1    1hy3z2            0.127400       0.004200
                         10       1    1hy2z3            0.127400       0.004200
                         10       1    1hyz4             0.127400       0.002750
                         10       1    1hz5              0.127400       0.000917

                         11       1    1gx4              0.297100       0.039529
                                                         0.150000       0.000000
                         11       1    1gx3y             0.297100       0.104584
                                                         0.150000       0.000000
                         11       1    1gx3z             0.297100       0.104584
                                                         0.150000       0.000000
                         11       1    1gx2y2            0.297100       0.135018
                                                         0.150000       0.000000
                         11       1    1gx2yz            0.297100       0.233858
                                                         0.150000       0.000000
                         11       1    1gx2z2            0.297100       0.135018
                                                         0.150000       0.000000
                         11       1    1gxy3             0.297100       0.104584
                                                         0.150000       0.000000
                         11       1    1gxy2z            0.297100       0.233858
                                                         0.150000       0.000000
                         11       1    1gxyz2            0.297100       0.233858
                                                         0.150000       0.000000
                         11       1    1gxz3             0.297100       0.104584
                                                         0.150000       0.000000
                         11       1    1gy4              0.297100       0.039529
                                                         0.150000       0.000000
                         11       1    1gy3z             0.297100       0.104584
                                                         0.150000       0.000000
                         11       1    1gy2z2            0.297100       0.135018
                                                         0.150000       0.000000
                         11       1    1gyz3             0.297100       0.104584
                                                         0.150000       0.000000
                         11       1    1gz4              0.297100       0.039529
                                                         0.150000       0.000000

                         11       2    2gx4              0.297100       0.000000
                                                         0.150000       0.006035
                         11       2    2gx3y             0.297100       0.000000
                                                         0.150000       0.015967
                         11       2    2gx3z             0.297100       0.000000
                                                         0.150000       0.015967
                         11       2    2gx2y2            0.297100       0.000000
                                                         0.150000       0.020614
                         11       2    2gx2yz            0.297100       0.000000
                                                         0.150000       0.035704
                         11       2    2gx2z2            0.297100       0.000000
                                                         0.150000       0.020614
                         11       2    2gxy3             0.297100       0.000000
                                                         0.150000       0.015967
                         11       2    2gxy2z            0.297100       0.000000
                                                         0.150000       0.035704
                         11       2    2gxyz2            0.297100       0.000000
                                                         0.150000       0.035704
                         11       2    2gxz3             0.297100       0.000000
                                                         0.150000       0.015967
                         11       2    2gy4              0.297100       0.000000
                                                         0.150000       0.006035
                         11       2    2gy3z             0.297100       0.000000
                                                         0.150000       0.015967
                         11       2    2gy2z2            0.297100       0.000000
                                                         0.150000       0.020614
                         11       2    2gyz3             0.297100       0.000000
                                                         0.150000       0.015967
                         11       2    2gz4              0.297100       0.000000
                                                         0.150000       0.006035

                         12       1    1hx5              0.294900       0.014021
                         12       1    1hx4y             0.294900       0.042064
                         12       1    1hx4z             0.294900       0.042064
                         12       1    1hx3y2            0.294900       0.064254
                         12       1    1hx3yz            0.294900       0.111290
                         12       1    1hx3z2            0.294900       0.064254
                         12       1    1hx2y3            0.294900       0.064254
                         12       1    1hx2y2z           0.294900       0.143675
                         12       1    1hx2yz2           0.294900       0.143675
                         12       1    1hx2z3            0.294900       0.064254
                         12       1    1hxy4             0.294900       0.042064
                         12       1    1hxy3z            0.294900       0.111290
                         12       1    1hxy2z2           0.294900       0.143675
                         12       1    1hxyz3            0.294900       0.111290
                         12       1    1hxz4             0.294900       0.042064
                         12       1    1hy5              0.294900       0.014021
                         12       1    1hy4z             0.294900       0.042064
                         12       1    1hy3z2            0.294900       0.064254
                         12       1    1hy2z3            0.294900       0.064254
                         12       1    1hyz4             0.294900       0.042064
                         12       1    1hz5              0.294900       0.014021

     RI Auxiliary Basis Set                                    aug-cc-pV5Z-RIFIT

       Number of orbital shell sets:                                          46
       Number of orbital shells:                                              46
       Number of primitive Cartesian functions:                               46
       Number of Cartesian basis functions:                                  371
       Number of spherical basis functions:                                  242
       Norm type:                                                              2

       Normalised Cartesian orbitals:

                        Set   Shell   Orbital            Exponent    Coefficient

                          1       1    1s                0.030479       0.051989

                          2       1    1px               0.045175       0.029687
                          2       1    1py               0.045175       0.029687
                          2       1    1pz               0.045175       0.029687

                          3       1    1dx2              0.048718       0.008315
                          3       1    1dxy              0.048718       0.014402
                          3       1    1dxz              0.048718       0.014402
                          3       1    1dy2              0.048718       0.008315
                          3       1    1dyz              0.048718       0.014402
                          3       1    1dz2              0.048718       0.008315

                          4       1    1s                0.064288       0.090993

                          5       1    1fx3              0.065213       0.003164
                          5       1    1fx2y             0.065213       0.007075
                          5       1    1fx2z             0.065213       0.007075
                          5       1    1fxy2             0.065213       0.007075
                          5       1    1fxyz             0.065213       0.012253
                          5       1    1fxz2             0.065213       0.007075
                          5       1    1fy3              0.065213       0.003164
                          5       1    1fy2z             0.065213       0.007075
                          5       1    1fyz2             0.065213       0.007075
                          5       1    1fz3              0.065213       0.003164

                          6       1    1px               0.072777       0.053881
                          6       1    1py               0.072777       0.053881
                          6       1    1pz               0.072777       0.053881

                          7       1    1gx4              0.099854       0.001971
                          7       1    1gx3y             0.099854       0.005215
                          7       1    1gx3z             0.099854       0.005215
                          7       1    1gx2y2            0.099854       0.006732
                          7       1    1gx2yz            0.099854       0.011661
                          7       1    1gx2z2            0.099854       0.006732
                          7       1    1gxy3             0.099854       0.005215
                          7       1    1gxy2z            0.099854       0.011661
                          7       1    1gxyz2            0.099854       0.011661
                          7       1    1gxz3             0.099854       0.005215
                          7       1    1gy4              0.099854       0.001971
                          7       1    1gy3z             0.099854       0.005215
                          7       1    1gy2z2            0.099854       0.006732
                          7       1    1gyz3             0.099854       0.005215
                          7       1    1gz4              0.099854       0.001971

                          8       1    1dx2              0.101078       0.029823
                          8       1    1dxy              0.101078       0.051656
                          8       1    1dxz              0.101078       0.051656
                          8       1    1dy2              0.101078       0.029823
                          8       1    1dyz              0.101078       0.051656
                          8       1    1dz2              0.101078       0.029823

                          9       1    1px               0.121261       0.101998
                          9       1    1py               0.121261       0.101998
                          9       1    1pz               0.121261       0.101998

                         10       1    1s                0.123532       0.148506

                         11       1    1fx3              0.156013       0.022520
                         11       1    1fx2y             0.156013       0.050356
                         11       1    1fx2z             0.156013       0.050356
                         11       1    1fxy2             0.156013       0.050356
                         11       1    1fxyz             0.156013       0.087219
                         11       1    1fxz2             0.156013       0.050356
                         11       1    1fy3              0.156013       0.022520
                         11       1    1fy2z             0.156013       0.050356
                         11       1    1fyz2             0.156013       0.050356
                         11       1    1fz3              0.156013       0.022520

                         12       1    1hx5              0.161413       0.001978
                         12       1    1hx4y             0.161413       0.005933
                         12       1    1hx4z             0.161413       0.005933
                         12       1    1hx3y2            0.161413       0.009063
                         12       1    1hx3yz            0.161413       0.015697
                         12       1    1hx3z2            0.161413       0.009063
                         12       1    1hx2y3            0.161413       0.009063
                         12       1    1hx2y2z           0.161413       0.020265
                         12       1    1hx2yz2           0.161413       0.020265
                         12       1    1hx2z3            0.161413       0.009063
                         12       1    1hxy4             0.161413       0.005933
                         12       1    1hxy3z            0.161413       0.015697
                         12       1    1hxy2z2           0.161413       0.020265
                         12       1    1hxyz3            0.161413       0.015697
                         12       1    1hxz4             0.161413       0.005933
                         12       1    1hy5              0.161413       0.001978
                         12       1    1hy4z             0.161413       0.005933
                         12       1    1hy3z2            0.161413       0.009063
                         12       1    1hy2z3            0.161413       0.009063
                         12       1    1hyz4             0.161413       0.005933
                         12       1    1hz5              0.161413       0.001978

                         13       1    1dx2              0.173452       0.076731
                         13       1    1dxy              0.173452       0.132903
                         13       1    1dxz              0.173452       0.132903
                         13       1    1dy2              0.173452       0.076731
                         13       1    1dyz              0.173452       0.132903
                         13       1    1dz2              0.173452       0.076731

                         14       1    1gx4              0.196188       0.012627
                         14       1    1gx3y             0.196188       0.033407
                         14       1    1gx3z             0.196188       0.033407
                         14       1    1gx2y2            0.196188       0.043128
                         14       1    1gx2yz            0.196188       0.074700
                         14       1    1gx2z2            0.196188       0.043128
                         14       1    1gxy3             0.196188       0.033407
                         14       1    1gxy2z            0.196188       0.074700
                         14       1    1gxyz2            0.196188       0.074700
                         14       1    1gxz3             0.196188       0.033407
                         14       1    1gy4              0.196188       0.012627
                         14       1    1gy3z             0.196188       0.033407
                         14       1    1gy2z2            0.196188       0.043128
                         14       1    1gyz3             0.196188       0.033407
                         14       1    1gz4              0.196188       0.012627

                         15       1    1px               0.223276       0.218772
                         15       1    1py               0.223276       0.218772
                         15       1    1pz               0.223276       0.218772

                         16       1    1s                0.246901       0.249633

                         17       1    1fx3              0.259280       0.070621
                         17       1    1fx2y             0.259280       0.157914
                         17       1    1fx2z             0.259280       0.157914
                         17       1    1fxy2             0.259280       0.157914
                         17       1    1fxyz             0.259280       0.273515
                         17       1    1fxz2             0.259280       0.157914
                         17       1    1fy3              0.259280       0.070621
                         17       1    1fy2z             0.259280       0.157914
                         17       1    1fyz2             0.259280       0.157914
                         17       1    1fz3              0.259280       0.070621

                         18       1    1ix6              0.339630       0.007797
                         18       1    1ix5y             0.339630       0.025861
                         18       1    1ix5z             0.339630       0.025861
                         18       1    1ix4y2            0.339630       0.044793
                         18       1    1ix4yz            0.339630       0.077583
                         18       1    1ix4z2            0.339630       0.044793
                         18       1    1ix3y3            0.339630       0.052999
                         18       1    1ix3y2z           0.339630       0.118510
                         18       1    1ix3yz2           0.339630       0.118510
                         18       1    1ix3z3            0.339630       0.052999
                         18       1    1ix2y4            0.339630       0.044793
                         18       1    1ix2y3z           0.339630       0.118510
                         18       1    1ix2y2z2          0.339630       0.152996
                         18       1    1ix2yz3           0.339630       0.118510
                         18       1    1ix2z4            0.339630       0.044793
                         18       1    1ixy5             0.339630       0.025861
                         18       1    1ixy4z            0.339630       0.077583
                         18       1    1ixy3z2           0.339630       0.118510
                         18       1    1ixy2z3           0.339630       0.118510
                         18       1    1ixyz4            0.339630       0.077583
                         18       1    1ixz5             0.339630       0.025861
                         18       1    1iy6              0.339630       0.007797
                         18       1    1iy5z             0.339630       0.025861
                         18       1    1iy4z2            0.339630       0.044793
                         18       1    1iy3z3            0.339630       0.052999
                         18       1    1iy2z4            0.339630       0.044793
                         18       1    1iyz5             0.339630       0.025861
                         18       1    1iz6              0.339630       0.007797

                         19       1    1dx2              0.339644       0.248715
                         19       1    1dxy              0.339644       0.430786
                         19       1    1dxz              0.339644       0.430786
                         19       1    1dy2              0.339644       0.248715
                         19       1    1dyz              0.339644       0.430786
                         19       1    1dz2              0.339644       0.248715

                         20       1    1s                0.380123       0.345027

                         21       1    1fx3              0.415519       0.204072
                         21       1    1fx2y             0.415519       0.456319
                         21       1    1fx2z             0.415519       0.456319
                         21       1    1fxy2             0.415519       0.456319
                         21       1    1fxyz             0.415519       0.790368
                         21       1    1fxz2             0.415519       0.456319
                         21       1    1fy3              0.415519       0.204072
                         21       1    1fy2z             0.415519       0.456319
                         21       1    1fyz2             0.415519       0.456319
                         21       1    1fz3              0.415519       0.204072

                         22       1    1hx5              0.427119       0.046733
                         22       1    1hx4y             0.427119       0.140200
                         22       1    1hx4z             0.427119       0.140200
                         22       1    1hx3y2            0.427119       0.214160
                         22       1    1hx3yz            0.427119       0.370935
                         22       1    1hx3z2            0.427119       0.214160
                         22       1    1hx2y3            0.427119       0.214160
                         22       1    1hx2y2z           0.427119       0.478876
                         22       1    1hx2yz2           0.427119       0.478876
                         22       1    1hx2z3            0.427119       0.214160
                         22       1    1hxy4             0.427119       0.140200
                         22       1    1hxy3z            0.427119       0.370935
                         22       1    1hxy2z2           0.427119       0.478876
                         22       1    1hxyz3            0.427119       0.370935
                         22       1    1hxz4             0.427119       0.140200
                         22       1    1hy5              0.427119       0.046733
                         22       1    1hy4z             0.427119       0.140200
                         22       1    1hy3z2            0.427119       0.214160
                         22       1    1hy2z3            0.427119       0.214160
                         22       1    1hyz4             0.427119       0.140200
                         22       1    1hz5              0.427119       0.046733

                         23       1    1gx4              0.434910       0.112729
                         23       1    1gx3y             0.434910       0.298252
                         23       1    1gx3z             0.434910       0.298252
                         23       1    1gx2y2            0.434910       0.385041
                         23       1    1gx2yz            0.434910       0.666911
                         23       1    1gx2z2            0.434910       0.385041
                         23       1    1gxy3             0.434910       0.298252
                         23       1    1gxy2z            0.434910       0.666911
                         23       1    1gxyz2            0.434910       0.666911
                         23       1    1gxz3             0.434910       0.298252
                         23       1    1gy4              0.434910       0.112729
                         23       1    1gy3z             0.434910       0.298252
                         23       1    1gy2z2            0.434910       0.385041
                         23       1    1gyz3             0.434910       0.298252
                         23       1    1gz4              0.434910       0.112729

                         24       1    1px               0.520190       0.629713
                         24       1    1py               0.520190       0.629713
                         24       1    1pz               0.520190       0.629713

                         25       1    1hx5              0.598672       0.140026
                         25       1    1hx4y             0.598672       0.420078
                         25       1    1hx4z             0.598672       0.420078
                         25       1    1hx3y2            0.598672       0.641679
                         25       1    1hx3yz            0.598672       1.111421
                         25       1    1hx3z2            0.598672       0.641679
                         25       1    1hx2y3            0.598672       0.641679
                         25       1    1hx2y2z           0.598672       1.434838
                         25       1    1hx2yz2           0.598672       1.434838
                         25       1    1hx2z3            0.598672       0.641679
                         25       1    1hxy4             0.598672       0.420078
                         25       1    1hxy3z            0.598672       1.111421
                         25       1    1hxy2z2           0.598672       1.434838
                         25       1    1hxyz3            0.598672       1.111421
                         25       1    1hxz4             0.598672       0.420078
                         25       1    1hy5              0.598672       0.140026
                         25       1    1hy4z             0.598672       0.420078
                         25       1    1hy3z2            0.598672       0.641679
                         25       1    1hy2z3            0.598672       0.641679
                         25       1    1hyz4             0.598672       0.420078
                         25       1    1hz5              0.598672       0.140026

                         26       1    1ix6              0.598672       0.065334
                         26       1    1ix5y             0.598672       0.216687
                         26       1    1ix5z             0.598672       0.216687
                         26       1    1ix4y2            0.598672       0.375313
                         26       1    1ix4yz            0.598672       0.650061
                         26       1    1ix4z2            0.598672       0.375313
                         26       1    1ix3y3            0.598672       0.444076
                         26       1    1ix3y2z           0.598672       0.992984
                         26       1    1ix3yz2           0.598672       0.992984
                         26       1    1ix3z3            0.598672       0.444076
                         26       1    1ix2y4            0.598672       0.375313
                         26       1    1ix2y3z           0.598672       0.992984
                         26       1    1ix2y2z2          0.598672       1.281937
                         26       1    1ix2yz3           0.598672       0.992984
                         26       1    1ix2z4            0.598672       0.375313
                         26       1    1ixy5             0.598672       0.216687
                         26       1    1ixy4z            0.598672       0.650061
                         26       1    1ixy3z2           0.598672       0.992984
                         26       1    1ixy2z3           0.598672       0.992984
                         26       1    1ixyz4            0.598672       0.650061
                         26       1    1ixz5             0.598672       0.216687
                         26       1    1iy6              0.598672       0.065334
                         26       1    1iy5z             0.598672       0.216687
                         26       1    1iy4z2            0.598672       0.375313
                         26       1    1iy3z3            0.598672       0.444076
                         26       1    1iy2z4            0.598672       0.375313
                         26       1    1iyz5             0.598672       0.216687
                         26       1    1iz6              0.598672       0.065334

                         27       1    1s                0.705917       0.548877

                         28       1    1fx3              0.764640       0.804883
                         28       1    1fx2y             0.764640       1.799773
                         28       1    1fx2z             0.764640       1.799773
                         28       1    1fxy2             0.764640       1.799773
[...]
 CP2K: atomistic simulations of condensed matter systems.
 https://doi.org/10.1002/wcms.1159

 U. Borstnik, J. VandeVondele, V. Weber, J. Hutter.
 Parallel Comput. 40, 47-58 (2014).
 Sparse matrix multiplication: The distributed block-compressed sparse row 
 library.
 https://doi.org/10.1016/j.parco.2014.03.012

 M. Guidon, J. Hutter, J. VandeVondele.
 J. Chem. Theory Comput. 5, 3010-3021 (2009).
 Robust Periodic Hartree-Fock Exchange for Large-Scale Simulations Using 
 Gaussian Basis Sets.
 https://doi.org/10.1021/ct900494g

 M. Guidon, F. Schiffmann, J. Hutter, J. VandeVondele.
 J. Chem. Phys. 128, 214104 (2008).
 Ab initio molecular dynamics using hybrid density functionals.
 https://doi.org/10.1063/1.2931945

 L. Genovese, T. Deutsch, S. Goedecker.
 J. Chem. Phys. 127, 054704 (2007).
 Efficient and accurate three-dimensional Poisson solver for surface problems.
 https://doi.org/10.1063/1.2754685

 J. VandeVondele, J. Hutter.
 J. Chem. Phys. 127, 114105 (2007).
 Gaussian basis sets for accurate calculations on molecular systems in gas and 
 condensed phases.
 https://doi.org/10.1063/1.2770708

 L. Genovese, T. Deutsch, A. Neelov, S. Goedecker, G. Beylkin.
 J. Chem. Phys. 125, 074105 (2006).
 Efficient solution of Poisson's equation with free boundary conditions.
 https://doi.org/10.1063/1.2335442

 M. Iannuzzi, T. Chassaing, T. Wallman, J. Hutter.
 CHIMIA 59, 499-503 (2005).
 Ground and excited state density functional calculations with the Gaussian and 
 augmented-plane-wave method.
 https://doi.org/10.2533/000942905777676164

 M. Frigo, S. G. Johnson.
 Proc. IEEE 93, 216-231 (2005).
 The design and implementation of FFTW3.
 https://doi.org/10.1109/JPROC.2004.840301

 R. L. Martin.
 J. Chem. Phys. 118, 4775-4777 (2003).
 Natural transition orbitals.
 https://doi.org/10.1063/1.1558471

 M. Krack, M. Parrinello.
 Phys. Chem. Chem. Phys. 2, 2105-2112 (2000).
 All-electron ab-initio molecular dynamics.
 https://doi.org/10.1039/b001167n

 G. Lippert, J. Hutter, M. Parrinello.
 Theor. Chem. Acc. 103, 124-140 (1999).
 The Gaussian and augmented-plane-wave density functional method for ab initio 
 molecular dynamics simulations.
 https://doi.org/10.1007/s002140050523

 J. P. Perdew, K. Burke, M. Ernzerhof.
 Phys. Rev. Lett. 77, 3865-3868 (1996).
 Generalized gradient approximation made simple.
 https://doi.org/10.1103/PhysRevLett.77.3865


 -------------------------------------------------------------------------------
 -                                                                             -
 -                                T I M I N G                                  -
 -                                                                             -
 -------------------------------------------------------------------------------
 SUBROUTINE                       CALLS  ASD         SELF TIME        TOTAL TIME
                                MAXIMUM       AVERAGE  MAXIMUM  AVERAGE  MAXIMUM
 CP2K                                 1  1.0    0.084    0.111 1537.237 1537.238
 qs_energies                          1  2.0    0.000    0.001 1536.337 1536.338
 integrate_four_center              393  9.8   16.819   26.290 1095.657 1096.746
 mp_sync                           2096 11.5  178.037  994.928  178.037  994.928
 integrate_four_center_main         393 10.8    9.036  198.470  825.061  980.034
 integrate_four_center_bin        84969 11.8  816.026  979.020  816.026  979.020
 scf_env_do_scf                       1  3.0    0.000    0.000  800.782  800.792
 scf_env_do_scf_inner_loop           73  4.0    0.002    0.005  800.779  800.789
 qs_ks_update_qs_env                 73  5.0    0.001    0.001  759.322  759.501
 rebuild_ks_matrix                   73  6.0    0.000    0.000  759.302  759.481
 qs_ks_build_kohn_sham_matrix        73  7.0    0.011    0.013  759.302  759.480
 qs_energies_properties               1  3.0    0.000    0.000  730.752  730.753
 tddfpt                               1  4.0    0.000    0.001  730.752  730.752
 tddfpt_energies                      1  5.0    0.000    0.001  730.492  730.492
 tddfpt_davidson_solver               1  6.0    0.002    0.003  723.437  723.438
 tddfpt_compute_Aop_evects            8  7.0    0.000    0.000  720.321  720.322
 hfx_ks_matrix                       73  8.0    0.003    0.003  655.179  655.423
 tddfpt_apply_hfx                     8  8.0    0.003    0.005  445.870  445.870
 tddft_hfx_matrix                   320  9.0    0.009    0.011  440.492  441.576
 fhxc_kernel                          8  8.0    0.007    0.009  272.982  272.983
 fft_wrap_pw1pw2                   4747 11.0    0.081    0.113  113.730  116.703
 fft_wrap_pw1pw2_250               3343 12.1    2.662    3.093  109.531  112.508
 tddfpt_apply_coulomb               160  9.0    0.003    0.005  108.404  109.779
 pw_poisson_solve                   233  9.4    2.019    2.665  106.783  108.018
 fft3d_ps                          4747 13.0   25.131   34.949  102.306  105.489
 mp_alltoall_z22v                  4747 15.0   71.339   74.517   71.339   74.517
 prepare_gapw_den                   234  8.7    0.004    0.005   65.467   65.591
 qs_rho_update_rho_low              235  7.7    0.003    0.003   64.208   64.220
 calculate_rho_elec                 235  8.7    0.574    0.814   59.295   59.306
 integrate_v_rspace                 233  9.0    0.005    0.007   58.422   58.908
 ps_wavelet_solve                   233 10.4   26.791   36.394   56.440   57.418
 x_to_yz                           1941 13.7    2.630    3.638   48.693   50.454
 mp_alltoall_d11v                 14380 11.6   29.215   45.163   29.215   45.163
 density_rs2pw                      235  9.7    0.013    0.015   36.847   44.655
 mp_waitall_1                    447526 13.2   37.739   44.397   37.739   44.397
 calculate_rho_atom                 234  9.7    6.271   39.533    6.271   39.534
 xc_pw_derive                      1401 11.0    0.014    0.017   38.524   39.117
 gaVxcgb_GC                         233  9.7    1.512   37.105    1.512   37.105
 calc_screening_functions             1 10.0   34.438   35.562   35.143   36.269
 transfer_rs2pw                    1175 10.7    0.026    0.041   28.512   36.252
 mp_sum_dv                        43684  8.8   30.853   34.004   30.853   34.004
 rs_gather_matrices                 233 10.0    0.041    0.220   20.464   33.459
 mp_alltoall_d54                    233 11.4   11.133   32.394   11.133   32.394
 grid_integrate_task_list           233 10.0   13.020   32.354   13.020   32.354
 mp_waitany                       77742 12.8   24.151   32.136   24.151   32.136
 tddfpt_apply_xc_analytic           160  9.0    0.121    0.143   31.281   31.830
 grid_collocate_task_list           235  9.7   19.975   30.290   19.975   30.290
 integrate_vhg0_rspace              233  9.4    6.336    6.809   28.342   28.655
 yz_to_x                           1870 14.4    1.841    2.055   26.953   28.506
 calculate_xc_2nd_deriv_atom        160  9.0    0.103    2.134    1.152   27.785
 transfer_rs2pw_250                 470 11.7    3.664    4.489   17.603   26.719
 xc_pw_divergence                   233 10.7    0.008    0.010   26.192   26.713
 potential_pw2rs                    233 10.0    0.052    0.067   24.932   25.604
 transfer_pw2rs                    1166 10.9    0.017    0.022   22.403   22.724
 mp_sum_d                         17451  7.2   18.953   21.225   18.953   21.225
 mp_alltoall_d45                    234 11.4   18.293   20.965   18.293   20.965
 integrate_four_center_getP         393 10.8    0.576    0.613   20.298   20.512
 mp_isendrecv_dv                 239132 12.3    6.367   20.288    6.367   20.288
 integrate_four_center_dist_KS      393 10.8    0.422    0.472   19.845   19.902
 mp_sum_dm                         5726  9.9   18.875   19.495   18.875   19.495
 xc_calc_2nd_deriv_analytical       480 10.1    0.864    0.937   18.564   18.620
 sum_up_and_integrate                73  8.0    0.001    0.001   18.213   18.601
 calculate_rho0_atom                234  9.7   16.896   18.069   16.896   18.069
 qs_vxc_create                       73  8.0    0.001    0.001   16.933   16.934
 xc_vxc_pw_create                    73  9.0    0.224    0.302   16.932   16.933
 cp_fm_syevd                        124  7.2    0.001    0.001   14.802   14.830
 cp_fm_redistribute_end             124  8.2    7.370   14.605    7.390   14.615
 qs_scf_new_mos                      73  5.0    0.001    0.001   14.470   14.534
 cp_fm_syevd_base                   124  8.2    7.206   14.442    7.206   14.442
 put_rho0_on_grid                   234  9.7    0.598    0.935   12.683   12.806
 transfer_pw2rs_250                 467 11.7    4.260    4.563   12.385   12.720
 cp_dbcsr_sm_fm_multiply           1006  8.6    0.022    0.025   10.599   12.568
 eigensolver_symm                    73  6.0    0.003    0.004   12.450   12.464
 calculate_vxc_atom                  73  8.0    0.028    0.476   12.265   12.266
 transfer_rs2pw_90                  235 11.7    0.869    1.058    4.600    8.926
 xc_rho_set_and_dset_create          74 10.0    0.182    0.220    7.591    8.916
 dbcsr_complete_redistribute       3378 10.4    0.249    0.425    6.639    8.683
 copy_fm_to_dbcsr                  2273  9.5    0.011    0.012    4.883    6.929
 gspace_mixing                       72  5.0    0.175    0.249    6.632    6.633
 tddfpt_print_nto_analysis            1  6.0    0.003    0.004    6.115    6.115
 copy_dbcsr_to_fm                  1103  9.3    0.016    0.017    5.074    5.820
 mp_alltoall_i22                   4482 11.4    3.512    5.493    3.512    5.493
 dbcsr_multiply_generic            1399 10.3    0.064    0.071    4.262    5.397
 cp_fm_geeig                         20  7.0    0.001    0.001    5.326    5.330
 transfer_pw2rs_30                  233 12.0    2.125    2.317    4.837    5.170
 transfer_rs2pw_30                  235 11.7    2.057    2.148    4.829    4.987
 calculate_rho_atom_coeff           235  8.7    0.433    1.100    4.910    4.912
 broyden_mixing                      72  6.0    4.467    4.572    4.615    4.689
 cp_dbcsr_sm_fm_multiply_core      1006  9.6    0.003    0.003    3.220    4.309
 transfer_pw2rs_90                  233 12.0    0.874    1.009    3.682    4.296
 multiply_cannon                   1399 11.3    0.151    0.158    3.083    4.243
 qs_energies_init_hamiltonians        1  3.0    0.000    0.000    4.171    4.171
 build_core_hamiltonian_matrix        1  4.0    0.000    0.000    4.156    4.156
 overlap_condnum                      1  5.0    0.000    0.001    4.114    4.153
 dbcsr_desymmetrize_deep           1104 10.3    0.031    0.042    3.213    3.977
 mp_sendrecv_dv                   89770 12.7    3.702    3.847    3.702    3.847
 pw_scatter_p                      2407 12.8    3.636    3.808    3.636    3.808
 arnoldi_conjugate_gradient           5  6.0    0.067    0.087    3.788    3.788
 multiply_cannon_loop              1399 12.3    0.220    0.233    2.545    3.685
 cp2k_distribution_to_z_slices      233 10.4    1.363    1.617    3.343    3.626
 Vh_1c_gg_integrals                 233  9.4    0.147    3.175    3.442    3.539
 pw_gather_p                       2340 13.3    2.962    3.326    2.962    3.326
 rs_grid_zero                      1168 11.9    3.087    3.248    3.087    3.248
 mp_isend_dm3                     10302 12.8    0.731    3.166    0.731    3.166
 fft_wrap_pw1pw2_90                 468 11.9    0.084    0.174    2.685    3.037
 multiply_cannon_metrocomm3       33576 13.3    0.101    0.105    1.260    2.958
 pw_derive                         2100 11.8    2.721    2.859    2.721    2.859
 dbcsr_sym_matrix_vector_mult     10015  7.0    0.156    0.171    1.966    2.701
 xc_functional_eval                 540 10.9    0.001    0.003    1.531    2.655
 pbe_lda_eval                       540 11.9    1.531    2.654    1.531    2.654
 mp_sum_l                          5415 10.5    1.331    2.148    1.331    2.148
 mp_alltoall_i11v                 11238 11.4    2.097    2.111    2.097    2.111
 update_ks_atom                     233  8.7    0.302    0.816    1.495    2.040
 integrate_four_center_load         393 10.8    0.001    0.002    1.169    1.954
 hfx_load_balance                     1 11.0    0.000    0.000    1.168    1.953
 hfx_load_balance_range               1 12.0    0.000    0.003    1.124    1.909
 multiply_cannon_metrocomm1       33576 13.3    0.037    0.039    0.624    1.897
 pw_copy                           3180 11.0    1.801    1.891    1.801    1.891
 tddfpt_orthonormalize_psi1_psi       9  6.9    0.019    0.021    1.843    1.844
 cp_dbcsr_plus_fm_fm_t              233  8.4    0.004    0.004    1.741    1.818
 pw_copy_to_array                  2340 13.3    1.222    1.732    1.222    1.732
 transfer_pw2rs_10                  233 12.0    0.541    0.626    1.482    1.702
 pw_poisson_set                     234 10.4    0.006    0.008    1.632    1.658
 hybrid_alltoall_any               3902 13.4    0.034    0.067    1.403    1.602
 transfer_rs2pw_10                  235 11.7    0.525    0.564    1.454    1.539
 dbcsr_rep_row_to_rep_col_vec     10015  8.0    0.056    0.086    0.592    1.473
 tddfpt_apply_energy_diff             8  8.0    0.001    0.001    1.468    1.469
 parallel_gemm_fm                  1505  8.2    0.002    0.002    1.404    1.448
 parallel_gemm_fm_gemm             1505  9.2    0.002    0.002    1.402    1.446
 cp_fm_gemm                        1505 10.2    1.400    1.444    1.400    1.444
 mp_isend_dv                     132580 13.5    0.764    1.396    0.764    1.396
 mp_bcast_dm                       3728  9.7    1.193    1.335    1.193    1.335
 pw_integral_ab_c1d_c1d_gs          233 10.4    0.852    0.861    1.153    1.231
 tddfpt_compute_residual_vects        7  7.0    0.001    0.001    1.212    1.213
 powell_optimize                 446848 11.0    1.107    1.200    1.107    1.200
 mp_irecv_dm3                     10302 12.8    0.512    1.142    0.512    1.142
 pw_axpy                           2498 10.8    0.994    1.108    0.994    1.108
 rs_scatter_matrices                235  9.7    0.005    0.039    1.006    1.046
 fft_wrap_pw1pw2_30                 468 11.9    0.015    0.015    0.954    1.025
 make_m2s                          2798 11.3    0.051    0.058    0.793    1.008
 mp_alltoall_z11v                   936 14.9    0.935    1.002    0.935    1.002
 cp_fm_triangular_multiply           60  8.0    0.952    0.955    0.952    0.955
 pw_zero                           2524 10.6    0.811    0.898    0.811    0.898
 dbcsr_add_d                      15078  7.0    0.013    0.015    0.118    0.894
 pw_copy_from_array                2407 12.8    0.758    0.882    0.758    0.882
 dbcsr_add_anytype                15078  8.0    0.016    0.114    0.105    0.879
 make_images                       2798 12.3    0.143    0.222    0.663    0.876
 cp_fm_cholesky_decompose            21  8.0    0.847    0.848    0.847    0.848
 calculate_dm_sparse                 73  6.0    0.001    0.001    0.765    0.837
 mp_max_i                           686  5.0    0.677    0.817    0.677    0.817
 calc_pair_dist_radii                 1 10.0    0.251    0.277    0.653    0.768
 dbcsr_sym_matrix_vector_mult_l   10015  8.0    0.102    0.713    0.132    0.740
 dbcsr_finalize                   21881 11.3    0.041    0.211    0.208    0.737
 cp_fm_triangular_invert             20  8.0    0.732    0.733    0.732    0.733
 dbcsr_col_vec_to_rep_row         10015  8.0    0.072    0.094    0.428    0.712
 yz_to_xz                           466 14.0    0.044    0.051    0.627    0.689
 offload_free_buffer                241 10.1    0.486    0.636    0.486    0.636
 pw_poisson_rebuild                 233 10.4    0.000    0.000    0.616    0.635
 ps_wavelet_create                    1 10.0    0.000    0.000    0.616    0.635
 RS_z_slice_distribution              1 11.0    0.520    0.584    0.616    0.635
 tddfpt_construct_ground_state_       1  6.0    0.000    0.000    0.562    0.564
 init_scf_run                         1  3.0    0.000    0.000    0.551    0.551
 multiply_cannon_multrec          33576 13.3    0.065    0.492    0.072    0.500
 create_qs_kind_set                   1  2.0    0.000    0.000    0.499    0.499
 read_qs_kind                         1  3.0    0.198    0.238    0.499    0.499
 mp_bcast_dv                      10139  9.0    0.216    0.491    0.216    0.491
 fft_wrap_pw1pw2_10                 468 11.9    0.005    0.005    0.478    0.491
 multiply_cannon_metrocomm4       32177 13.3    0.097    0.106    0.205    0.455
 prepare_dr1dr                      480 11.1    0.259    0.409    0.259    0.409
 cp_fm_symm                          73  7.0    0.379    0.401    0.379    0.401
 dbcsr_merge_all                  20148 12.3    0.080    0.285    0.127    0.394
 mp_irecv_dv                     132308 13.5    0.155    0.393    0.155    0.393
 scale_and_distribute               466 11.4    0.320    0.391    0.320    0.391
 xz_to_yz                           470 13.7    0.029    0.037    0.381    0.388
 scf_env_initial_rho_setup            1  4.0    0.000    0.000    0.385    0.386
 cp_fm_trace_a1b1t1_aa            13090  8.0    0.062    0.069    0.361    0.365
 mp_allgather_i34                  1399 12.3    0.301    0.358    0.301    0.358
 make_images_data                  2798 13.3    0.033    0.042    0.114    0.345
 mp_rank_compare                   4747 14.0    0.315    0.325    0.315    0.325
 make_images_sizes                 2798 13.3    0.003    0.004    0.291    0.319
 mp_alltoall_i44                   2798 14.3    0.288    0.316    0.288    0.316
 parser_read_line                 41104  4.0    0.014    0.017    0.301    0.304
 dbcsr_iterator_start            139323  9.3    0.157    0.237    0.187    0.297
 dbcsr_copy                       43571  7.8    0.157    0.180    0.261    0.296
 parser_read_line_low                46  5.0    0.016    0.191    0.287    0.290
 broadcast_input_information         46  6.0    0.036    0.040    0.271    0.275
 cp_fm_redistribute_start           124  8.2    0.153    0.185    0.205    0.260
 qs_init_subsys                       1  2.0    0.010    0.012    0.251    0.252
 mp_cart_create                    1341 11.0    0.220    0.238    0.221    0.240
 dbcsr_create_new                 65905  9.9    0.173    0.184    0.225    0.238
 mp_cart_sub                       2210 11.3    0.225    0.228    0.225    0.228
 multiply_cannon_metrocomm2       29379 13.3    0.089    0.095    0.165    0.209
 mp_bcast_i_src                     184  7.0    0.179    0.200    0.179    0.200
 dbcsr_iterator_stop             139323  9.3    0.119    0.165    0.145    0.196
 qs_env_setup                         1  3.0    0.000    0.000    0.182    0.192
 qs_env_rebuild_pw_env                2  3.5    0.000    0.000    0.181    0.191
 pw_env_rebuild                       1  5.0    0.001    0.001    0.180    0.190
 tddfpt_init_mos                      1  5.0    0.000    0.000    0.170    0.181
 tddfpt_init_ground_state_mos         1  6.0    0.000    0.000    0.170    0.181
 cp_fm_power                          1  6.0    0.001    0.001    0.175    0.175
 create_kernel_env                    1  6.0    0.000    0.000    0.130    0.161
 xc_prep_2nd_deriv                    1  7.0    0.000    0.000    0.129    0.161
 -------------------------------------------------------------------------------

 The number of warnings for this run is : 3
 
 -------------------------------------------------------------------------------
  **** **** ******  **  PROGRAM ENDED AT                 2025-04-14 04:03:39.188
 ***** ** ***  *** **   PROGRAM RAN ON                              i01r02c05s10
 **    ****   ******    PROGRAM RAN BY                                   di38fab
 ***** **    ** ** **   PROGRAM PROCESS ID                                782535
  **** **  *******  **  PROGRAM STOPPED IN /hppfs/scratch/04/di38fab/05_MOL/W4-1
                                           1+ALK/li8/aug-cc-pV5Z/TDDFT
