 DBCSR| CPU Multiplication driver                                           XSMM (U)
 DBCSR| Multrec recursion limit                                              512 (U)
 DBCSR| Multiplication stack size                                           1000 (D)
 DBCSR| Maximum elements for images                                    UNLIMITED (U)
 DBCSR| Multiplicative factor virtual images                                   1 (U)
 DBCSR| Use multiplication densification                                       T (D)
 DBCSR| Multiplication size stacks                                             3 (U)
 DBCSR| Use memory pool for CPU allocation                                     F (U)
 DBCSR| Number of 3D layers                                               SINGLE (U)
 DBCSR| Use MPI memory allocation                                              F (U)
 DBCSR| Use RMA algorithm                                                      F (U)
 DBCSR| Use Communication thread                                               T (U)
 DBCSR| Communication thread load                                             60 (D)
 DBCSR| MPI: My process id                                                     0
 DBCSR| MPI: Number of processes                                              32
 DBCSR| OMP: Current number of threads                                         8
 DBCSR| OMP: Max number of threads                                             8
 DBCSR| Split modifier for TAS multiplication algorithm                  1.0E+00 (U)


  **** **** ******  **  PROGRAM STARTED AT               2025-06-23 15:27:22.603
 ***** ** ***  *** **   PROGRAM STARTED ON                              n2cn0456
 **    ****   ******    PROGRAM STARTED BY                              metdyn02
 ***** **    ** ** **   PROGRAM PROCESS ID                                537437
  **** **  *******  **  PROGRAM STARTED IN /scratch/hpc-prf-metdyn/metdyn02_Remi
                                           /10_MOL/05_MOL/aUKBqsEOTmq69kFe5R_nOg
                                           /5k_set_final_qzvp/UVALIN/mini-SZV/TD
                                           DFT/1e-4

 CP2K| version string:                 CP2K version 2025.1 (Development Version)
 CP2K| source code revision number:                                  git:32ddf85
 CP2K| cp2kflags: omp libint fftw3 libxc libgrpp elpa parallel scalapack mpi_f08
 CP2K|             cosma xsmm plumed2 spglib libvori libbqb libvdwxc hdf5
 CP2K| is freely available from                            https://www.cp2k.org/
 CP2K| Program compiled at                         Mon May 19 11:32:37 CEST 2025
 CP2K| Program compiled on                                              n2login1
 CP2K| Program compiled for                                                local
 CP2K| Data directory path    /opt/software/pc2/EB-SW/software/CP2K/2024.1-foss-
 CP2K| Input file name                                                    GW.inp

 GLOBAL| Force Environment number                                              1
 GLOBAL| Basis set file name            /scratch/hpc-prf-metdyn/metdyn02_Remi/BA
 GLOBAL| Potential file name            /pc2/groups/hpc-prf-metdyn/metdyn02_Remi
 GLOBAL| MM Potential file name                                     MM_POTENTIAL
 GLOBAL| Coordinate file name                                      __STD_INPUT__
 GLOBAL| Method name                                                        CP2K
 GLOBAL| Project name                                                       MoS2
 GLOBAL| Run type                                                         ENERGY
 GLOBAL| FFT library                                                       FFTW3
 GLOBAL| Diagonalization library                                            ELPA
 GLOBAL| Cholesky decomposition library                                ScaLAPACK
 GLOBAL| DGEMM library                                                      BLAS
 GLOBAL| Minimum number of eigenvectors for ELPA usage                        16
 GLOBAL| Orthonormality check for eigenvectors                          DISABLED
 GLOBAL| Matrix multiplication library                                     COSMA
 GLOBAL| All-to-all communication in single precision                          F
 GLOBAL| FFTs using library dependent lengths                                  F
 GLOBAL| Grid backend                                                       AUTO
 GLOBAL| Global print level                                               MEDIUM
 GLOBAL| MPI I/O enabled                                                       T
 GLOBAL| Total number of message passing processes                            32
 GLOBAL| Number of threads for this process                                    8
 GLOBAL| This output is from process                                           0
 GLOBAL| OpenMP stack size per thread (OMP_STACKSIZE)                    default
 GLOBAL| CPU model name                          AMD EPYC 7763 64-Core Processor
 GLOBAL| CPUID                                                              1002

 MEMORY| system memory details [Kb]
 MEMORY|                        rank 0           min           max       average
 MEMORY| MemTotal            263897604     263897544     263897652     263897596
 MEMORY| MemFree             251453536     250960848     252098836     251782444
 MEMORY| Buffers                114184         94420        125936        118848
 MEMORY| Cached                6572540       6572540       7238544       7070389
 MEMORY| Slab                  2337004       1299448       2337004       1590208
 MEMORY| SReclaimable           984052        287096        984052        484673
 MEMORY| MemLikelyFree       259124312     259124312     259590300     259456355


 *** Fundamental physical constants (SI units) ***

 *** Literature: B. J. Mohr and B. N. Taylor,
 ***             CODATA recommended values of the fundamental physical
 ***             constants: 2006, Web Version 5.1
 ***             http://physics.nist.gov/constants

 Speed of light in vacuum [m/s]                             2.99792458000000E+08
 Magnetic constant or permeability of vacuum [N/A**2]       1.25663706143592E-06
 Electric constant or permittivity of vacuum [F/m]          8.85418781762039E-12
 Planck constant (h) [J*s]                                  6.62606896000000E-34
 Planck constant (h-bar) [J*s]                              1.05457162825177E-34
 Elementary charge [C]                                      1.60217648700000E-19
 Electron mass [kg]                                         9.10938215000000E-31
 Electron g factor [ ]                                     -2.00231930436220E+00
 Proton mass [kg]                                           1.67262163700000E-27
 Fine-structure constant                                    7.29735253760000E-03
 Rydberg constant [1/m]                                     1.09737315685270E+07
 Avogadro constant [1/mol]                                  6.02214179000000E+23
 Boltzmann constant [J/K]                                   1.38065040000000E-23
 Atomic mass unit [kg]                                      1.66053878200000E-27
 Bohr radius [m]                                            5.29177208590000E-11

 *** Conversion factors ***

 [u] -> [a.u.]                                              1.82288848426455E+03
 [Angstrom] -> [Bohr] = [a.u.]                              1.88972613288564E+00
 [a.u.] = [Bohr] -> [Angstrom]                              5.29177208590000E-01
 [a.u.] -> [s]                                              2.41888432650478E-17
 [a.u.] -> [fs]                                             2.41888432650478E-02
 [a.u.] -> [J]                                              4.35974393937059E-18
 [a.u.] -> [N]                                              8.23872205491840E-08
 [a.u.] -> [K]                                              3.15774647902944E+05
 [a.u.] -> [kJ/mol]                                         2.62549961709828E+03
 [a.u.] -> [kcal/mol]                                       6.27509468713739E+02
 [a.u.] -> [Pa]                                             2.94210107994716E+13
 [a.u.] -> [bar]                                            2.94210107994716E+08
 [a.u.] -> [atm]                                            2.90362800883016E+08
 [a.u.] -> [eV]                                             2.72113838565563E+01
 [a.u.] -> [Hz]                                             6.57968392072181E+15
 [a.u.] -> [1/cm] (wave numbers)                            2.19474631370540E+05
 [a.u./Bohr**2] -> [1/cm]                                   5.14048714338585E+03
 

 CELL_TOP| Volume [angstrom^3]:                                     27000.000000
 CELL_TOP| Vector a [angstrom    30.000     0.000     0.000   |a| =    30.000000
 CELL_TOP| Vector b [angstrom     0.000    30.000     0.000   |b| =    30.000000
 CELL_TOP| Vector c [angstrom     0.000     0.000    30.000   |c| =    30.000000
 CELL_TOP| Angle (b,c), alpha [degree]:                                90.000000
 CELL_TOP| Angle (a,c), beta  [degree]:                                90.000000
 CELL_TOP| Angle (a,b), gamma [degree]:                                90.000000
 CELL_TOP| Numerically orthorhombic:                                         YES
 CELL_TOP| Periodicity                                                      NONE

 GENERATE|  Preliminary Number of Bonds generated:                             0
 GENERATE|  Achieved consistency in connectivity generation.

 CELL| Volume [angstrom^3]:                                         27000.000000
 CELL| Vector a [angstrom]:      30.000     0.000     0.000   |a| =    30.000000
 CELL| Vector b [angstrom]:       0.000    30.000     0.000   |b| =    30.000000
 CELL| Vector c [angstrom]:       0.000     0.000    30.000   |c| =    30.000000
 CELL| Angle (b,c), alpha [degree]:                                    90.000000
 CELL| Angle (a,c), beta  [degree]:                                    90.000000
 CELL| Angle (a,b), gamma [degree]:                                    90.000000
 CELL| Numerically orthorhombic:                                             YES
 CELL| Periodicity                                                          NONE

 CELL_REF| Volume [angstrom^3]:                                     27000.000000
 CELL_REF| Vector a [angstrom    30.000     0.000     0.000   |a| =    30.000000
 CELL_REF| Vector b [angstrom     0.000    30.000     0.000   |b| =    30.000000
 CELL_REF| Vector c [angstrom     0.000     0.000    30.000   |c| =    30.000000
 CELL_REF| Angle (b,c), alpha [degree]:                                90.000000
 CELL_REF| Angle (a,c), beta  [degree]:                                90.000000
 CELL_REF| Angle (a,b), gamma [degree]:                                90.000000
 CELL_REF| Numerically orthorhombic:                                         YES
 CELL_REF| Periodicity                                                      NONE

 *******************************************************************************
 *******************************************************************************
 **                                                                           **
 **     #####                         ##              ##                      **
 **    ##   ##            ##          ##              ##                      **
 **   ##     ##                       ##            ######                    **
 **   ##     ##  ##   ##  ##   #####  ##  ##   ####   ##    #####    #####    **
 **   ##     ##  ##   ##  ##  ##      ## ##   ##      ##   ##   ##  ##   ##   **
 **   ##  ## ##  ##   ##  ##  ##      ####     ###    ##   ######   ######    **
 **    ##  ###   ##   ##  ##  ##      ## ##      ##   ##   ##       ##        **
 **     #######   #####   ##   #####  ##  ##  ####    ##    #####   ##        **
 **           ##                                                    ##        **
 **                                                                           **
 **                                                ... make the atoms dance   **
 **                                                                           **
 **            Copyright (C) by CP2K developers group (2000-2025)             **
 **                      J. Chem. Phys. 152, 194103 (2020)                    **
 **                                                                           **
 *******************************************************************************

 DFT| Spin restricted Kohn-Sham (RKS) calculation                            RKS
 DFT| Multiplicity                                                             1
 DFT| Number of spin states                                                    1
 DFT| Charge                                                                   0
 DFT| Self-interaction correction (SIC)                                       NO
 DFT| Cutoffs: density                                              1.000000E-10
 DFT|          gradient                                             1.000000E-10
 DFT|          tau                                                  1.000000E-10
 DFT|          cutoff_smoothing_range                               0.000000E+00
 DFT| XC density smoothing                                                  NONE
 DFT| XC derivatives                                                          PW

 FUNCTIONAL| PBE:
 FUNCTIONAL| J.P.Perdew, K.Burke, M.Ernzerhof, Phys. Rev. Letter, vol. 77, n 18,
 FUNCTIONAL|  pp. 3865-3868, (1996)sx=0.750sc=1.000{spin unpolarized}           


 QS| Method:                                                                GAPW
 QS| Density plane wave grid type                        NON-SPHERICAL FULLSPACE
 QS| Number of grid levels:                                                    4
 QS| Density cutoff [a.u.]:                                                250.0
 QS| Multi grid cutoff [a.u.]: 1) grid level                               250.0
 QS|                           2) grid level                                83.3
 QS|                           3) grid level                                27.8
 QS|                           4) grid level                                 9.3
 QS| Grid level progression factor:                                          3.0
 QS| Relative density cutoff [a.u.]:                                        50.0
 QS| Interaction thresholds: eps_pgf_orb:                                1.0E-12
 QS|                         eps_filter_matrix:                          0.0E+00
 QS|                         eps_core_charge:                            1.0E-14
 QS|                         eps_rho_gspace:                             1.0E-12
 QS|                         eps_rho_rspace:                             1.0E-12
 QS|                         eps_gvg_rspace:                             1.0E-06
 QS|                         eps_ppl:                                    1.0E-02
 QS|                         eps_ppnl:                                   1.0E-08
 QS| GAPW|      One center basis from orbital basis primitives
 QS| GAPW|                   eps_fit:                                    1.0E-04
 QS| GAPW|                   eps_iso:                                    1.0E-12
 QS| GAPW|                   eps_svd:                                    1.0E-08
 QS| GAPW|                   eps_cpc:                                    1.0E-12
 QS| GAPW|   atom-r-grid: quadrature:                                     GC_LOG
 QS| GAPW|      atom-s-grid:  max l :                                          2
 QS| GAPW|      max_l_rho0 :                                                   2


 ATOMIC KIND INFORMATION

  1. Atomic kind: S                                     Number of atoms:       2

     Orbital Basis Set                                    aug-SZV-MOLOPT-ae-mini

       Number of orbital shell sets:                                           3
       Number of orbital shells:                                               7
       Number of primitive Cartesian functions:                               10
       Number of Cartesian basis functions:                                   13
       Number of spherical basis functions:                                   13
       Norm type:                                                              2

       Normalised Cartesian orbitals:

                        Set   Shell   Orbital            Exponent    Coefficient

                          1       1    1s                2.029194      -0.266118
                                                         0.566140       0.104938
                                                         0.221583       0.207251
                                                         0.100000       0.000000

                          1       2    2s                2.029194       0.000000
                                                         0.566140       0.204121
                                                         0.221583      -0.309021
                                                         0.100000      -0.000667

                          1       3    2px               2.029194       0.036552
                                                         0.566140       0.416614
                                                         0.221583       0.100116
                                                         0.100000       0.000000
                          1       3    2py               2.029194       0.036552
                                                         0.566140       0.416614
                                                         0.221583       0.100116
                                                         0.100000       0.000000
                          1       3    2pz               2.029194       0.036552
                                                         0.566140       0.416614
                                                         0.221583       0.100116
                                                         0.100000       0.000000

                          1       4    3px               2.029194       0.000000
                                                         0.566140      -0.277816
                                                         0.221583      -0.031781
                                                         0.100000       0.095870
                          1       4    3py               2.029194       0.000000
                                                         0.566140      -0.277816
                                                         0.221583      -0.031781
                                                         0.100000       0.095870
                          1       4    3pz               2.029194       0.000000
                                                         0.566140      -0.277816
                                                         0.221583      -0.031781
                                                         0.100000       0.095870

                          2       1    1s               33.329752      -0.988305
                                                         7.745118       1.321941
                                                         2.518953       0.997688

                          2       2    2px              33.329752      17.797990
                                                         7.745118      11.191879
                                                         2.518953       1.772979
                          2       2    2py              33.329752      17.797990
                                                         7.745118      11.191879
                                                         2.518953       1.772979
                          2       2    2pz              33.329752      17.797990
                                                         7.745118      11.191879
                                                         2.518953       1.772979

                          3       1    1s              533.125730      12.203369
                                                        97.109510      11.802561
                                                        26.281620       3.678347

     RI Auxiliary Basis Set             RI_aug-SZV-MOLOPT-ae-mini_N_RI_024_s_p_d

       Number of orbital shell sets:                                          10
       Number of orbital shells:                                              10
       Number of primitive Cartesian functions:                               10
       Number of Cartesian basis functions:                                   26
       Number of spherical basis functions:                                   24
       Norm type:                                                              2

       Normalised Cartesian orbitals:

                        Set   Shell   Orbital            Exponent    Coefficient

                          1       1    1s                0.223905       0.231984

                          2       1    9dx2              0.243010       0.138437
                          2       1    9dxy              0.243010       0.239780
                          2       1    9dxz              0.243010       0.239780
                          2       1    9dy2              0.243010       0.138437
                          2       1    9dyz              0.243010       0.239780
                          2       1    9dz2              0.243010       0.138437

                          3       1    6px               0.396147       0.447982
                          3       1    6py               0.396147       0.447982
                          3       1    6pz               0.396147       0.447982

                          4       1    2s                0.458945       0.397402

                          5       1    3s                0.920347       0.669690

                          6       1    7px               0.969722       1.371668
                          6       1    7py               0.969722       1.371668
                          6       1    7pz               0.969722       1.371668

                          7       1   10dx2              0.971807       1.565576
                          7       1   10dxy              0.971807       2.711657
                          7       1   10dxz              0.971807       2.711657
                          7       1   10dy2              0.971807       1.565576
                          7       1   10dyz              0.971807       2.711657
                          7       1   10dz2              0.971807       1.565576

                          8       1    4s                1.767285       1.092421

                          9       1    8px               1.953355       3.291673
                          9       1    8py               1.953355       3.291673
                          9       1    8pz               1.953355       3.291673

                         10       1    5s                3.375179       1.774732

       Atomic covalent radius [Angstrom]:                                  1.020

       Atomic van der Waals radius [Angstrom]:                             1.800

     The atoms of this atomic kind are PAW atoms (GAPW):
       Hard Gaussian function radius:                                      1.512
       Rho0 radius:                                                        1.512
       Maximum GTO radius used for PAW projector construction:            24.566

     GAPW Soft Basis Set                             aug-SZV-MOLOPT-ae-mini_soft

       Number of orbital shell sets:                                           3
       Number of orbital shells:                                               7
       Number of primitive Cartesian functions:                                5
       Number of Cartesian basis functions:                                   13
       Number of spherical basis functions:                                   13
       Norm type:                                                              2

       Normalised Cartesian orbitals:

                        Set   Shell   Orbital            Exponent    Coefficient

                          1       1    1s                2.029194      -0.266118
                                                         0.566140       0.104938
                                                         0.221583       0.207251
                                                         0.100000       0.000000

                          1       2    2s                2.029194       0.000000
                                                         0.566140       0.204121
                                                         0.221583      -0.309021
                                                         0.100000      -0.000667

                          1       3    2px               2.029194       0.036552
                                                         0.566140       0.416614
                                                         0.221583       0.100116
                                                         0.100000       0.000000
                          1       3    2py               2.029194       0.036552
                                                         0.566140       0.416614
                                                         0.221583       0.100116
                                                         0.100000       0.000000
                          1       3    2pz               2.029194       0.036552
                                                         0.566140       0.416614
                                                         0.221583       0.100116
                                                         0.100000       0.000000

                          1       4    3px               2.029194       0.000000
                                                         0.566140      -0.277816
                                                         0.221583      -0.031781
                                                         0.100000       0.095870
                          1       4    3py               2.029194       0.000000
                                                         0.566140      -0.277816
                                                         0.221583      -0.031781
                                                         0.100000       0.095870
                          1       4    3pz               2.029194       0.000000
                                                         0.566140      -0.277816
                                                         0.221583      -0.031781
                                                         0.100000       0.095870

                          2       1    1s                2.518953       0.997688

                          2       2    2px               2.518953       1.772979
                          2       2    2py               2.518953       1.772979
                          2       2    2pz               2.518953       1.772979

                          3       1    1s         

     AE Potential information for                                            ALL

       Description:                                       All-electron potential
                                          Krack, Parrinello, PCCP 2, 2105 (2000)

       Gaussian exponent of the core charge distribution:               2.834467
       Electronic configuration (s p d ...):                           6  10   0

  2. Atomic kind: N                                     Number of atoms:       8

     Orbital Basis Set                                    aug-SZV-MOLOPT-ae-mini

       Number of orbital shell sets:                                           2
       Number of orbital shells:                                               5
       Number of primitive Cartesian functions:                                7
       Number of Cartesian basis functions:                                    9
       Number of spherical basis functions:                                    9
       Norm type:                                                              2

       Normalised Cartesian orbitals:

                        Set   Shell   Orbital            Exponent    Coefficient

                          1       1    1s                0.112012       0.000000
                                                         0.285714       0.194997
                                                         0.878496       0.258372
                                                         3.780455      -0.193164

                          1       2    2s                0.112012      -0.247059
                                                         0.285714       0.355178
                                                         0.878496       0.105643
                                                         3.780455      -0.000189

                          1       3    2px               0.112012       0.000000
                                                         0.285714       0.116706
                                                         0.878496       0.736703
                                                         3.780455       1.171552
                          1       3    2py               0.112012       0.000000
                                                         0.285714       0.116706
                                                         0.878496       0.736703
                                                         3.780455       1.171552
                          1       3    2pz               0.112012       0.000000
                                                         0.285714       0.116706
                                                         0.878496       0.736703
                                                         3.780455       1.171552

                          1       4    3px               0.112012       0.096580
                                                         0.285714      -0.017996
                                                         0.878496       0.000162
                                                         3.780455       0.000013
                          1       4    3py               0.112012       0.096580
                                                         0.285714      -0.017996
                                                         0.878496       0.000162
                                                         3.780455       0.000013
                          1       4    3pz               0.112012       0.096580
                                                         0.285714      -0.017996
                                                         0.878496       0.000162
                                                         3.780455       0.000013

                          2       1    1s               99.106168       3.454863
                                                        18.052312       3.341413
                                                         4.885660       1.041372

     RI Auxiliary Basis Set             RI_aug-SZV-MOLOPT-ae-mini_N_RI_023_s_p_d

       Number of orbital shell sets:                                           9
       Number of orbital shells:                                               9
       Number of primitive Cartesian functions:                                9
       Number of Cartesian basis functions:                                   25
       Number of spherical basis functions:                                   23
       Norm type:                                                              2

       Normalised Cartesian orbitals:

                        Set   Shell   Orbital            Exponent    Coefficient

                          1       1    8dx2              0.247473       0.142917
                          1       1    8dxy              0.247473       0.247539
                          1       1    8dxz              0.247473       0.247539
                          1       1    8dy2              0.247473       0.142917
                          1       1    8dyz              0.247473       0.247539
                          1       1    8dz2              0.247473       0.142917

                          2       1    1s                0.269982       0.266939

                          3       1    5px               0.290292       0.303728
                          3       1    5py               0.290292       0.303728
                          3       1    5pz               0.290292       0.303728

                          4       1    2s                0.773829       0.588023

                          5       1    6px               1.337055       2.049400
                          5       1    6py               1.337055       2.049400
                          5       1    6pz               1.337055       2.049400

                          6       1    3s                2.228530       1.299942

                          7       1    9dx2              2.368474       7.442682
                          7       1    9dxy              2.368474      12.891104
                          7       1    9dxz              2.368474      12.891104
                          7       1    9dy2              2.368474       7.442682
                          7       1    9dyz              2.368474      12.891104
                          7       1    9dz2              2.368474       7.442682

                          8       1    7px               6.206242      13.962911
                          8       1    7py               6.206242      13.962911
                          8       1    7pz               6.206242      13.962911

                          9       1    4s                6.295867       2.832707

       Atomic covalent radius [Angstrom]:                                  0.750

       Atomic van der Waals radius [Angstrom]:                             1.550

     The atoms of this atomic kind are PAW atoms (GAPW):
       Hard Gaussian function radius:                                      1.512
       Rho0 radius:                                                        1.512
       Maximum GTO radius used for PAW projector construction:            24.566

     GAPW Soft Basis Set                             aug-SZV-MOLOPT-ae-mini_soft

       Number of orbital shell sets:                                           2
       Number of orbital shells:                                               5
       Number of primitive Cartesian functions:                                4
       Number of Cartesian basis functions:                                    9
       Number of spherical basis functions:                                    9
       Norm type:                                                              2

       Normalised Cartesian orbitals:

                        Set   Shell   Orbital            Exponent    Coefficient

                          1       1    1s                0.112012       0.000000
                                                         0.285714       0.194997
                                                         0.878496       0.258372
                                                         3.780455      -0.193164

                          1       2    2s                0.112012      -0.247059
                                                         0.285714       0.355178
                                                         0.878496       0.105643
                                                         3.780455      -0.000189

                          1       3    2px               0.112012       0.000000
                                                         0.285714       0.116706
                                                         0.878496       0.736703
                                                         3.780455       1.171552
                          1       3    2py               0.112012       0.000000
                                                         0.285714       0.116706
                                                         0.878496       0.736703
                                                         3.780455       1.171552
                          1       3    2pz               0.112012       0.000000
                                                         0.285714       0.116706
                                                         0.878496       0.736703
                                                         3.780455       1.171552

                          1       4    3px               0.112012       0.096580
                                                         0.285714      -0.017996
                                                         0.878496       0.000162
                                                         3.780455       0.000013
                          1       4    3py               0.112012       0.096580
                                                         0.285714      -0.017996
                                                         0.878496       0.000162
                                                         3.780455       0.000013
                          1       4    3pz               0.112012       0.096580
                                                         0.285714      -0.017996
                                                         0.878496       0.000162
                                                         3.780455       0.000013

                          2       1    1s         

     AE Potential information for                                            ALL

       Description:                                       All-electron potential
                                          Krack, Parrinello, PCCP 2, 2105 (2000)

       Gaussian exponent of the core charge distribution:               5.979100
       Electronic configuration (s p d ...):                           4   3   0

  3. Atomic kind: C                                     Number of atoms:       4

     Orbital Basis Set                                    aug-SZV-MOLOPT-ae-mini

       Number of orbital shell sets:                                           2
       Number of orbital shells:                                               5
       Number of primitive Cartesian functions:                                7
       Number of Cartesian basis functions:                                    9
       Number of spherical basis functions:                                    9
       Norm type:                                                              2

       Normalised Cartesian orbitals:

                        Set   Shell   Orbital            Exponent    Coefficient

                          1       1    2s                0.114558       0.000000
                                                         0.222289       0.161536
                                                         0.683483       0.214036
                                                         2.941249      -0.160017

                          1       2    3s                0.114558       0.000272
                                                         0.222289       0.256636
                                                         0.683483      -0.079244
                                                         2.941249       0.000032

                          1       3    3px               0.114558       0.000000
                                                         0.222289       0.085276
                                                         0.683483       0.538304
                                                         2.941249       0.856044
                          1       3    3py               0.114558       0.000000
                                                         0.222289       0.085276
                                                         0.683483       0.538304
                                                         2.941249       0.856044
                          1       3    3pz               0.114558       0.000000
                                                         0.222289       0.085276
                                                         0.683483       0.538304
                                                         2.941249       0.856044

                          1       4    4px               0.114558      -0.035043
                                                         0.222289      -0.159067
                                                         0.683483       0.106927
                                                         2.941249      -0.036832
                          1       4    4py               0.114558      -0.035043
                                                         0.222289      -0.159067
                                                         0.683483       0.106927
                                                         2.941249      -0.036832
                          1       4    4pz               0.114558      -0.035043
                                                         0.222289      -0.159067
                                                         0.683483       0.106927
                                                         2.941249      -0.036832

                          2       1    1s               71.616837       2.707801
                                                        13.045096       2.618883
                                                         3.530512       0.816191

     RI Auxiliary Basis Set             RI_aug-SZV-MOLOPT-ae-mini_N_RI_022_s_p_d

       Number of orbital shell sets:                                          10
       Number of orbital shells:                                              10
       Number of primitive Cartesian functions:                               10
       Number of Cartesian basis functions:                                   24
       Number of spherical basis functions:                                   22
       Norm type:                                                              2

       Normalised Cartesian orbitals:

                        Set   Shell   Orbital            Exponent    Coefficient

                          1       1    9dx2              0.319489       0.223463
                          1       1    9dxy              0.319489       0.387050
                          1       1    9dxz              0.319489       0.387050
                          1       1    9dy2              0.319489       0.223463
                          1       1    9dyz              0.319489       0.387050
                          1       1    9dz2              0.319489       0.223463

                          2       1    1s                0.357304       0.329373

                          3       1    7px               0.413040       0.471987
                          3       1    7py               0.413040       0.471987
                          3       1    7pz               0.413040       0.471987

                          4       1    2s                0.585920       0.477297

                          5       1    3s                0.962549       0.692592

                          6       1    8px               1.175289       1.744299
                          6       1    8py               1.175289       1.744299
                          6       1    8pz               1.175289       1.744299

                          7       1    4s                1.583093       1.005866

                          8       1   10dx2              1.968757       5.385741
                          8       1   10dxy              1.968757       9.328377
                          8       1   10dxz              1.968757       9.328377
                          8       1   10dy2              1.968757       5.385741
                          8       1   10dyz              1.968757       9.328377
                          8       1   10dz2              1.968757       5.385741

                          9       1    5s                2.602827       1.460475

                         10       1    6s                4.278785       2.120315

       Atomic covalent radius [Angstrom]:                                  0.770

       Atomic van der Waals radius [Angstrom]:                             1.700

     The atoms of this atomic kind are PAW atoms (GAPW):
       Hard Gaussian function radius:                                      1.512
       Rho0 radius:                                                        1.512
       Maximum GTO radius used for PAW projector construction:            24.566

     GAPW Soft Basis Set                             aug-SZV-MOLOPT-ae-mini_soft

       Number of orbital shell sets:                                           2
       Number of orbital shells:                                               5
       Number of primitive Cartesian functions:                                5
       Number of Cartesian basis functions:                                    9
       Number of spherical basis functions:                                    9
       Norm type:                                                              2

       Normalised Cartesian orbitals:

                        Set   Shell   Orbital            Exponent    Coefficient

                          1       1    2s                0.114558       0.000000
                                                         0.222289       0.161536
                                                         0.683483       0.214036
                                                         2.941249      -0.160017

                          1       2    3s                0.114558       0.000272
                                                         0.222289       0.256636
                                                         0.683483      -0.079244
                                                         2.941249       0.000032

                          1       3    3px               0.114558       0.000000
                                                         0.222289       0.085276
                                                         0.683483       0.538304
                                                         2.941249       0.856044
                          1       3    3py               0.114558       0.000000
                                                         0.222289       0.085276
                                                         0.683483       0.538304
                                                         2.941249       0.856044
                          1       3    3pz               0.114558       0.000000
                                                         0.222289       0.085276
                                                         0.683483       0.538304
                                                         2.941249       0.856044

                          1       4    4px               0.114558      -0.035043
                                                         0.222289      -0.159067
                                                         0.683483       0.106927
                                                         2.941249      -0.036832
                          1       4    4py               0.114558      -0.035043
                                                         0.222289      -0.159067
                                                         0.683483       0.106927
                                                         2.941249      -0.036832
                          1       4    4pz               0.114558      -0.035043
                                                         0.222289      -0.159067
                                                         0.683483       0.106927
                                                         2.941249      -0.036832

                          2       1    1s                3.530512       0.816191

     AE Potential information for                                            ALL

       Description:                                       All-electron potential
                                          Krack, Parrinello, PCCP 2, 2105 (2000)

       Gaussian exponent of the core charge distribution:               4.109048
       Electronic configuration (s p d ...):                           4   2   0

  4. Atomic kind: H                                     Number of atoms:       6

     Orbital Basis Set                                    aug-SZV-MOLOPT-ae-mini

       Number of orbital shell sets:                                           1
       Number of orbital shells:                                               4
       Number of primitive Cartesian functions:                                7
       Number of Cartesian basis functions:                                    6
       Number of spherical basis functions:                                    6
       Norm type:                                                              2

       Normalised Cartesian orbitals:

                        Set   Shell   Orbital            Exponent    Coefficient

                          1       1    1s                0.065428       0.000000
                                                         0.100112       0.016532
                                                         0.243077       0.102760
                                                         0.625955       0.185857
                                                         1.822143       0.188385
                                                         6.513144       0.143430
                                                        35.523221       0.095030

                          1       2    2s                0.065428       0.083549
                                                         0.100112       0.009605
                                                         0.243077       0.002524
                                                         0.625955       0.013457
                                                         1.822143       0.000000
                                                         6.513144       0.000000
                                                        35.523221       0.000000

                          1       3    3s                0.065428       0.037407
                                                         0.100112      -0.169070
                                                         0.243077      -0.018899
                                                         0.625955       0.012806
                                                         1.822143       0.000000
                                                         6.513144       0.000000
                                                        35.523221       0.000000

                          1       4    2px               0.065428       0.059908
                                                         0.100112      -0.023770
                                                         0.243077       0.000032
                                                         0.625955       0.017779
                                                         1.822143       0.000000
                                                         6.513144       0.000000
                                                        35.523221       0.000000
                          1       4    2py               0.065428       0.059908
                                                         0.100112      -0.023770
                                                         0.243077       0.000032
                                                         0.625955       0.017779
                                                         1.822143       0.000000
                                                         6.513144       0.000000
                                                        35.523221       0.000000
                          1       4    2pz               0.065428       0.059908
                                                         0.100112      -0.023770
                                                         0.243077       0.000032
                                                         0.625955       0.017779
                                                         1.822143       0.000000
                                                         6.513144       0.000000
                                                        35.523221       0.000000

     RI Auxiliary Basis Set             RI_aug-SZV-MOLOPT-ae_N_RI_007_s_p_d_f_g_

       Number of orbital shell sets:                                           5
       Number of orbital shells:                                               5
       Number of primitive Cartesian functions:                                5
       Number of Cartesian basis functions:                                    7
       Number of spherical basis functions:                                    7
       Norm type:                                                              2

       Normalised Cartesian orbitals:

                        Set   Shell   Orbital            Exponent    Coefficient

                          1       1    1s                0.148777       0.170731

                          2       1    5px               0.367452       0.407794
                          2       1    5py               0.367452       0.407794
                          2       1    5pz               0.367452       0.407794

                          3       1    2s                0.510503       0.430437

                          4       1    3s                1.106366       0.768837

                          5       1    4s                5.955292       2.716986

       Atomic covalent radius [Angstrom]:                                  0.320

       Atomic van der Waals radius [Angstrom]:                             1.090

     The atoms of this atomic kind are PAW atoms (GAPW):
       Hard Gaussian function radius:                                      1.200
       Rho0 radius:                                                        1.200
       Maximum GTO radius used for PAW projector construction:            24.566

     GAPW Soft Basis Set                             aug-SZV-MOLOPT-ae-mini_soft

       Number of orbital shell sets:                                           1
       Number of orbital shells:                                               4
       Number of primitive Cartesian functions:                                6
       Number of Cartesian basis functions:                                    6
       Number of spherical basis functions:                                    6
       Norm type:                                                              2

       Normalised Cartesian orbitals:

                        Set   Shell   Orbital            Exponent    Coefficient

                          1       1    1s                0.065428       0.000000
                                                         0.100112       0.016532
                                                         0.243077       0.102760
                                                         0.625955       0.185857
                                                         1.822143       0.188385
                                                         6.513144       0.000000

                          1       2    2s                0.065428       0.083549
                                                         0.100112       0.009605
                                                         0.243077       0.002524
                                                         0.625955       0.013457
                                                         1.822143       0.000000
                                                         6.513144       0.000000

                          1       3    3s                0.065428       0.037407
                                                         0.100112      -0.169070
                                                         0.243077      -0.018899
                                                         0.625955       0.012806
                                                         1.822143       0.000000
                                                         6.513144       0.000000

                          1       4    2px               0.065428       0.059908
                                                         0.100112      -0.023770
                                                         0.243077       0.000032
                                                         0.625955       0.017779
                                                         1.822143       0.000000
                                                         6.513144       0.000000
                          1       4    2py               0.065428       0.059908
                                                         0.100112      -0.023770
                                                         0.243077       0.000032
                                                         0.625955       0.017779
                                                         1.822143       0.000000
                                                         6.513144       0.000000
                          1       4    2pz               0.065428       0.059908
                                                         0.100112      -0.023770
                                                         0.243077       0.000032
                                                         0.625955       0.017779
                                                         1.822143       0.000000
                                                         6.513144       0.000000

     AE Potential information for                                            ALL

       Description:                                       All-electron potential
                                          Krack, Parrinello, PCCP 2, 2105 (2000)

       Gaussian exponent of the core charge distribution:              12.500000
       Electronic configuration (s p d ...):                           1   0   0


 MOLECULE KIND INFORMATION


 All atoms are their own molecule, skipping detailed information


 TOTAL NUMBERS AND MAXIMUM NUMBERS

  Total number of            - Atomic kinds:                                   4
                             - Atoms:                                         20
                             - Shell sets:                                    36
                             - Shells:                                        98
                             - Primitive Cartesian functions:                146
                             - Cartesian basis functions:                    170
                             - Spherical basis functions:                    170

  Maximum angular momentum of the orbital basis functions:                     1


 MODULE QUICKSTEP: ATOMIC COORDINATES IN ANGSTROM

   Atom Kind Element         X             Y             Z       Z(eff)     Mass
      1    1 S    16     16.428010     16.613443     13.908941  16.0000  32.0650
      2    1 S    16     17.069351     15.199176     15.270388  16.0000  32.0650
      3    2 N     7     14.568837     15.462575     12.210097   7.0000  14.0067
      4    2 N     7     16.638642     15.000595     11.680284   7.0000  14.0067
      5    3 C     6     15.871331     15.643220     12.559556   6.0000  12.0107
      6    2 N     7     14.345218     14.976086     15.834214   7.0000  14.0067
      7    2 N     7     15.789990     14.422962     10.805785   7.0000  14.0067
      8    2 N     7     14.543581     14.701241     11.103306   7.0000  14.0067
      9    3 C     6     13.342757     15.960160     12.817196   6.0000  12.0107
     10    4 H     1     13.383291     15.780170     13.898627   1.0000   1.0079
     11    4 H     1     13.229605     17.031389     12.611863   1.0000   1.0079
     12    4 H     1     12.514467     15.409593     12.363869   1.0000   1.0079
     13    2 N     7     15.660331     14.221651     17.400097   7.0000  14.0067
     14    2 N     7     13.615731     14.485978     16.872176   7.0000  14.0067
     15    2 N     7     14.377289     14.022580     17.809900   7.0000  14.0067
     16    3 C     6     16.789772     13.818829     18.217463   6.0000  12.0107
     17    4 H     1     17.485533     14.658629     18.335009   1.0000   1.0079
     18    4 H     1     16.395697     13.525549     19.194215   1.0000   1.0079
     19    4 H     1     17.313343     12.968611     17.762772   1.0000   1.0079
     20    3 C     6     15.617367     14.808206     16.178642   6.0000  12.0107



 SCF PARAMETERS         Density guess:                                    ATOMIC
                        --------------------------------------------------------
                        max_scf:                                             500
                        max_scf_history:                                       0
                        max_diis:                                              4
                        --------------------------------------------------------
                        eps_scf:                                        1.00E-06
                        eps_scf_history:                                0.00E+00
                        eps_diis:                                       1.00E-01
                        eps_eigval:                                     1.00E-05
                        --------------------------------------------------------
                        level_shift [a.u.]:                             0.000000
                        added MOs                                       111    0
                        --------------------------------------------------------
                        Mixing method:                            BROYDEN_MIXING
                                                charge density mixing in g-space
                        --------------------------------------------------------
                        No outer SCF

 PW_GRID| Information for grid number                                          1
 PW_GRID| Grid distributed over                                    32 processors
 PW_GRID| Real space group dimensions                                    32    1
 PW_GRID| the grid is blocked:                                                NO
 PW_GRID| Cutoff [a.u.]                                                    250.0
 PW_GRID| spherical cutoff:                                                   NO
 PW_GRID|   Bounds   1           -202     202                Points:         405
 PW_GRID|   Bounds   2           -202     202                Points:         405
 PW_GRID|   Bounds   3           -202     202                Points:         405
 PW_GRID| Volume element (a.u.^3)  0.2743E-02     Volume (a.u.^3)    182205.0337
 PW_GRID| Grid span                                                    FULLSPACE
 PW_GRID|   Distribution                         Average         Max         Min
 PW_GRID|   G-Vectors                          2075941.4     2076030     2075625
 PW_GRID|   G-Rays                                5125.8        5126        5125
 PW_GRID|   Real Space Points                  2075941.4     2132325     1968300

 PW_GRID| Information for grid number                                          2
 PW_GRID| Number of the reference grid                                         1
 PW_GRID| Grid distributed over                                    32 processors
 PW_GRID| Real space group dimensions                                    32    1
 PW_GRID| the grid is blocked:                                                NO
 PW_GRID| Cutoff [a.u.]                                                     83.3
 PW_GRID| spherical cutoff:                                                   NO
 PW_GRID|   Bounds   1           -120     119                Points:         240
 PW_GRID|   Bounds   2           -120     119                Points:         240
 PW_GRID|   Bounds   3           -120     119                Points:         240
 PW_GRID| Volume element (a.u.^3)  0.1318E-01     Volume (a.u.^3)    182205.0337
 PW_GRID| Grid span                                                    FULLSPACE
 PW_GRID|   Distribution                         Average         Max         Min
 PW_GRID|   G-Vectors                           432000.0      432480      431760
 PW_GRID|   G-Rays                                1800.0        1802        1799
 PW_GRID|   Real Space Points                   432000.0      460800      403200

 PW_GRID| Information for grid number                                          3
 PW_GRID| Number of the reference grid                                         1
 PW_GRID| Grid distributed over                                    32 processors
 PW_GRID| Real space group dimensions                                    32    1
 PW_GRID| the grid is blocked:                                                NO
 PW_GRID| Cutoff [a.u.]                                                     27.8
 PW_GRID| spherical cutoff:                                                   NO
 PW_GRID|   Bounds   1            -67      67                Points:         135
 PW_GRID|   Bounds   2            -67      67                Points:         135
 PW_GRID|   Bounds   3            -67      67                Points:         135
 PW_GRID| Volume element (a.u.^3)  0.7406E-01     Volume (a.u.^3)    182205.0337
 PW_GRID| Grid span                                                    FULLSPACE
 PW_GRID|   Distribution                         Average         Max         Min
 PW_GRID|   G-Vectors                            76886.7       77085       76680
 PW_GRID|   G-Rays                                 569.5         571         568
 PW_GRID|   Real Space Points                    76886.7       91125       72900

 PW_GRID| Information for grid number                                          4
 PW_GRID| Number of the reference grid                                         1
 PW_GRID| Grid distributed over                                    32 processors
 PW_GRID| Real space group dimensions                                    32    1
 PW_GRID| the grid is blocked:                                                NO
 PW_GRID| Cutoff [a.u.]                                                      9.3
 PW_GRID| spherical cutoff:                                                   NO
 PW_GRID|   Bounds   1            -40      39                Points:          80
 PW_GRID|   Bounds   2            -40      39                Points:          80
 PW_GRID|   Bounds   3            -40      39                Points:          80
 PW_GRID| Volume element (a.u.^3)  0.3559         Volume (a.u.^3)    182205.0337
 PW_GRID| Grid span                                                    FULLSPACE
 PW_GRID|   Distribution                         Average         Max         Min
 PW_GRID|   G-Vectors                            16000.0       16160       15920
 PW_GRID|   G-Rays                                 200.0         202         199
 PW_GRID|   Real Space Points                    16000.0       19200       12800

 POISSON| Solver                                                         WAVELET
 POISSON| Wavelet| Scaling function                                           40
 POISSON| Periodicity                                                       NONE

 RS_GRID| Information for grid number                                          1
 RS_GRID|   Bounds   1           -202     202                Points:         405
 RS_GRID|   Bounds   2           -202     202                Points:         405
 RS_GRID|   Bounds   3           -202     202                Points:         405
 RS_GRID| Real space distribution over                                  2 groups
 RS_GRID| Real space distribution along direction                              1
 RS_GRID| Border size                                                         33
 RS_GRID| Real space distribution over                                  4 groups
 RS_GRID| Real space distribution along direction                              2
 RS_GRID| Border size                                                         33
 RS_GRID| Real space distribution over                                  4 groups
 RS_GRID| Real space distribution along direction                              3
 RS_GRID| Border size                                                         33
 RS_GRID|   Distribution                         Average         Max         Min
 RS_GRID|   Planes                                 268.5         269         268
 RS_GRID|   Distribution                         Average         Max         Min
 RS_GRID|   Planes                                 167.2         168         167
 RS_GRID|   Distribution                         Average         Max         Min
 RS_GRID|   Planes                                 167.2         168         167

 RS_GRID| Information for grid number                                          2
 RS_GRID|   Bounds   1           -120     119                Points:         240
 RS_GRID|   Bounds   2           -120     119                Points:         240
 RS_GRID|   Bounds   3           -120     119                Points:         240
 RS_GRID| Real space distribution over                                  2 groups
 RS_GRID| Real space distribution along direction                              1
 RS_GRID| Border size                                                         35
 RS_GRID| Real space distribution over                                  4 groups
 RS_GRID| Real space distribution along direction                              2
 RS_GRID| Border size                                                         35
 RS_GRID| Real space distribution over                                  4 groups
 RS_GRID| Real space distribution along direction                              3
 RS_GRID| Border size                                                         35
 RS_GRID|   Distribution                         Average         Max         Min
 RS_GRID|   Planes                                 190.0         190         190
 RS_GRID|   Distribution                         Average         Max         Min
 RS_GRID|   Planes                                 130.0         130         130
 RS_GRID|   Distribution                         Average         Max         Min
 RS_GRID|   Planes                                 130.0         130         130

 RS_GRID| Information for grid number                                          3
 RS_GRID|   Bounds   1            -67      67                Points:         135
 RS_GRID|   Bounds   2            -67      67                Points:         135
 RS_GRID|   Bounds   3            -67      67                Points:         135
 RS_GRID| Real space fully replicated
 RS_GRID| Group size                                                           1

 RS_GRID| Information for grid number                                          4
 RS_GRID|   Bounds   1            -40      39                Points:          80
 RS_GRID|   Bounds   2            -40      39                Points:          80
 RS_GRID|   Bounds   3            -40      39                Points:          80
 RS_GRID| Real space fully replicated
 RS_GRID| Group size                                                           1

  HFX_INFO| Replica ID:                                                        1
  HFX_INFO| FRACTION:                                               0.2500000000
  HFX_INFO| Interaction Potential:                                       COULOMB
  HFX_INFO| EPS_SCHWARZ:                                                 1.0E-10
  HFX_INFO| EPS_SCHWARZ_FORCES                                           1.0E-08
  HFX_INFO| EPS_STORAGE_SCALING:                                         1.0E+00
  HFX_INFO| NBINS:                                                            64
  HFX_INFO| BLOCK_SIZE:                                                        1
  HFX_INFO| Number of periodic shells considered:                           NONE
  HFX_INFO| Number of periodic cells considered:                            NONE


 OVERLAP MATRIX CONDITION NUMBER
 1-Norm Condition Number (Estimate)
   CN : |A|*|A^-1|:  1.909E+001 *  6.722E+003   = 1.283E+005  Log(1-CN):  5.1083
 1-Norm and 2-Norm Condition Numbers using Diagonalization
   CN : |A|*|A^-1|:  1.909E+001 *  6.714E+003   = 1.282E+005  Log(1-CN):  5.1078
   CN : max/min ev:  9.192E+000 /  3.399E-004   = 2.705E+004  Log(2-CN):  4.4321

 Number of electrons:                                                        118
 Number of occupied orbitals:                                                 59
 Number of molecular orbitals:                                               170

 Number of orbital functions:                                                170
 Number of independent orbital functions:                                    170

 Extrapolation method: initial_guess

 Atomic guess: The first density matrix is obtained in terms of atomic orbitals
               and electronic configurations assigned to each atomic kind

 Guess for atomic kind: S

 Electronic structure
    Total number of core electrons                                          0.00
    Total number of valence electrons                                      16.00
    Total number of electrons                                              16.00
    Multiplicity                                                   not specified
    S      2.00  2.00  2.00
    P      6.00  4.00


 *******************************************************************************
                  Iteration          Convergence                     Energy [au]
 *******************************************************************************
                          1        0.417945                    -392.420703940051
                          2        0.139114                    -392.432563895978
                          3        0.469394E-01                -392.437515911867
                          4        0.117351E-03                -392.438255341467
                          5        0.344555E-05                -392.438255344119
                          6        0.101721E-07                -392.438255344126

 Energy components [Hartree]           Total Energy ::         -392.438255344126
                                        Band Energy ::         -225.004450500919
                                     Kinetic Energy ::          384.765520351118
                                   Potential Energy ::         -777.203775695244
                                      Virial (-V/T) ::            2.019941326827
                                        Core Energy ::         -543.621259380045
                                          XC Energy ::          -23.955983502325
                                     Coulomb Energy ::          175.138987538244

 Orbital energies  State     L     Occupation   Energy[a.u.]          Energy[eV]

                       1     0          2.000     -86.940875        -2365.781526
                       2     0          2.000      -7.574798         -206.120725
                       3     0          2.000      -0.622434          -16.937283

                       1     1          6.000      -5.619289         -152.908627
                       2     1          4.000      -0.253126           -6.887911


 Total Electron Density at R=0:                                      1678.491278

 Guess for atomic kind: N

 Electronic structure
    Total number of core electrons                                          0.00
    Total number of valence electrons                                       7.00
    Total number of electrons                                               7.00
    Multiplicity                                                   not specified
    S      2.00  2.00
    P      3.00


 *******************************************************************************
                  Iteration          Convergence                     Energy [au]
 *******************************************************************************
                          1        0.395400                     -53.293349372466
                          2        0.225125                     -53.331168721159
                          3        0.860871E-03                 -53.359344571212
                          4        0.144713E-03                 -53.359344854486
                          5        0.187084E-05                 -53.359344864503
                          6        0.788718E-06                 -53.359344864504

 Energy components [Hartree]           Total Energy ::          -53.359344864504
                                        Band Energy ::          -30.026500782069
                                     Kinetic Energy ::           52.335746944580
                                   Potential Energy ::         -105.695091809084
                                      Virial (-V/T) ::            2.019558293894
                                        Core Energy ::          -72.545816435736
                                          XC Energy ::           -6.074236140041
                                     Coulomb Energy ::           25.260707711273

 Orbital energies  State     L     Occupation   Energy[a.u.]          Energy[eV]

                       1     0          2.000     -13.929313         -379.035885
                       2     0          2.000      -0.691080          -18.805237

                       1     1          3.000      -0.261905           -7.126799


 Total Electron Density at R=0:                                       127.566392

 Guess for atomic kind: C

 Electronic structure
    Total number of core electrons                                          0.00
    Total number of valence electrons                                       6.00
    Total number of electrons                                               6.00
    Multiplicity                                                   not specified
    S      2.00  2.00
    P      2.00


 *******************************************************************************
                  Iteration          Convergence                     Energy [au]
 *******************************************************************************
                          1        0.110940                     -36.966846197933
                          2        0.618479E-01                 -36.973380131832
                          3        0.312040E-03                 -36.976281169724
                          4        0.543046E-05                 -36.976281232084
                          5        0.506043E-09                 -36.976281232104

 Energy components [Hartree]           Total Energy ::          -36.976281232104
                                        Band Energy ::          -20.794821508944
                                     Kinetic Energy ::           36.488299270274
                                   Potential Energy ::          -73.464580502377
                                      Virial (-V/T) ::            2.013373655983
                                        Core Energy ::          -49.914993802944
                                          XC Energy ::           -4.745664989265
                                     Coulomb Energy ::           17.684377560105

[...]
 Phys. Chem. Chem. Phys. 2, 2105-2112 (2000).
 All-electron ab-initio molecular dynamics.
 https://doi.org/10.1039/b001167n

 G. Lippert, J. Hutter, M. Parrinello.
 Theor. Chem. Acc. 103, 124-140 (1999).
 The Gaussian and augmented-plane-wave density functional method for ab initio 
 molecular dynamics simulations.
 https://doi.org/10.1007/s002140050523

 J. P. Perdew, K. Burke, M. Ernzerhof.
 Phys. Rev. Lett. 77, 3865-3868 (1996).
 Generalized gradient approximation made simple.
 https://doi.org/10.1103/PhysRevLett.77.3865


 -------------------------------------------------------------------------------
 -                                                                             -
 -                                T I M I N G                                  -
 -                                                                             -
 -------------------------------------------------------------------------------
 SUBROUTINE                       CALLS  ASD         SELF TIME        TOTAL TIME
                                MAXIMUM       AVERAGE  MAXIMUM  AVERAGE  MAXIMUM
 CP2K                                 1  1.0    0.020    0.039  441.546  441.552
 qs_energies                          1  2.0    0.000    0.000  440.964  440.968
 qs_energies_properties               1  3.0    0.000    0.000  280.260  280.263
 tddfpt                               1  4.0    0.000    0.000  280.260  280.263
 tddfpt_energies                      1  5.0    0.000    0.000  280.182  280.185
 tddfpt_davidson_solver               1  6.0    0.001    0.001  279.052  279.055
 tddfpt_compute_Aop_evects            9  7.0    0.000    0.000  277.687  277.690
 fhxc_kernel                          9  8.0    0.006    0.007  265.569  265.572
 fft_wrap_pw1pw2                   5525 11.0    0.087    0.117  158.937  161.205
 scf_env_do_scf                       1  3.0    0.000    0.000  158.167  158.169
 scf_env_do_scf_inner_loop           91  4.0    0.002    0.006  158.167  158.169
 fft_wrap_pw1pw2_250               3893 12.1    7.446    7.995  154.333  156.451
 pw_poisson_solve                   271  9.3    3.065    3.327  148.780  149.757
 fft3d_ps                          5525 13.0   56.291   62.377  117.645  120.467
 tddfpt_apply_coulomb               180  9.0    0.002    0.003  113.384  114.307
 qs_ks_update_qs_env                 91  5.0    0.001    0.001  113.604  113.609
 rebuild_ks_matrix                   91  6.0    0.000    0.000  113.598  113.603
 qs_ks_build_kohn_sham_matrix        91  7.0    0.012    0.013  113.598  113.603
 ps_wavelet_solve                   271 10.3   85.110   90.915  108.374  108.922
 mp_alltoall_d54                    271 11.3   12.780   84.323   12.780   84.323
 xc_pw_derive                      1629 11.0    0.010    0.012   74.420   75.806
 qs_rho_update_rho_low              273  7.6    0.003    0.003   71.728   72.008
 calculate_rho_elec                 273  8.6    2.136    2.195   71.416   71.696
 tddfpt_apply_xc_analytic           180  9.0    0.457    0.497   64.424   64.840
 mp_alltoall_z22v                  5525 15.0   44.768   56.255   44.768   56.255
 xc_pw_divergence                   271 10.7    0.006    0.007   49.591   50.856
 density_rs2pw                      273  9.6    0.009    0.009   38.411   40.134
 xc_calc_2nd_deriv_analytical       900 10.6    3.131    3.458   37.634   37.703
 yz_to_x                           2720 14.3    7.401    8.028   29.416   35.812
 x_to_yz                           2805 13.7    9.080   10.652   31.833   35.503
 qs_vxc_create                       91  8.0    0.001    0.001   35.227   35.228
 xc_vxc_pw_create                    91  9.0    0.958    1.013   35.227   35.227
 grid_collocate_task_list           273  9.6   29.929   31.253   29.929   31.253
 integrate_v_rspace                 271  9.0    0.007    0.007   29.377   29.425
 potential_pw2rs                    271 10.0    0.064    0.069   28.287   28.338
 transfer_pw2rs                    1356 10.9    0.016    0.020   20.791   20.964
 prepare_gapw_den                   272  8.7    0.003    0.004   20.699   20.930
 transfer_rs2pw                    1365 10.6    0.019    0.024   18.971   20.538
 put_rho0_on_grid                   272  9.7    2.173    2.288   20.181   20.412
 gspace_mixing                       90  5.0    0.704    0.724   19.277   19.278
 mp_waitany                       35926 12.7   16.330   18.962   16.330   18.962
 xc_rho_set_and_dset_create          92 10.0    0.539    0.593   17.375   18.064
 mp_alltoall_d45                    272 11.3    9.909   15.284    9.909   15.284
 broyden_mixing                      90  6.0   14.621   14.893   14.984   15.034
 transfer_rs2pw_250                 546 11.6    5.454    5.856   12.698   14.259
 integrate_four_center              451  9.8    8.920   11.373   14.180   14.203
 transfer_pw2rs_250                 543 11.7    5.819    6.160   13.567   13.934
 pw_gather_p                       2720 13.3   12.766   13.749   12.766   13.749
 pw_scatter_p                      2805 12.7   12.465   12.959   12.465   12.959
 tddfpt_apply_hfx                     9  8.0    0.002    0.002   11.375   11.375
 mp_alltoall_d11v                 16236 11.6    5.054   11.081    5.054   11.081
 pw_derive                         2442 11.8   10.187   10.816   10.187   10.816
 tddft_hfx_matrix                   360  9.0    0.004    0.005   10.288   10.297
 sum_up_and_integrate                91  8.0    0.001    0.001   10.082   10.089
 integrate_vhg0_rspace              271  9.3    0.101    0.172    8.754    8.775
 dbcsr_multiply_generic            1577 10.3    0.036    0.039    6.628    7.707
 mp_waitall_1                    152286 13.8    5.504    7.407    5.504    7.407
 pw_copy                           3710 10.9    6.269    6.676    6.269    6.676
 pw_copy_to_array                  2720 13.3    5.009    5.965    5.009    5.965
 mp_sum_d                          5389  7.7    3.091    5.961    3.091    5.961
 multiply_cannon                   1577 11.3    0.072    0.076    4.217    5.881
 pw_poisson_set                     272 10.3    0.005    0.006    5.447    5.807
 cp2k_distribution_to_z_slices      271 10.3    2.519    2.891    4.893    5.654
 cp_dbcsr_plus_fm_fm_t              271  8.3    0.002    0.002    4.904    5.343
 mp_sync                           2404 11.4    2.556    5.039    2.556    5.039
 multiply_cannon_loop              1577 12.3    0.042    0.044    3.276    4.886
 pw_axpy                           2898 10.7    4.355    4.761    4.355    4.761
 xc_functional_eval                1176 10.7    0.002    0.003    4.079    4.667
 pbe_lda_eval                      1176 11.7    4.077    4.664    4.077    4.664
 cp_dbcsr_sm_fm_multiply           1126  8.6    0.013    0.014    4.571    4.586
 copy_dbcsr_to_fm                  1239  9.3    0.009    0.010    3.249    4.423
 fft_wrap_pw1pw2_90                 544 11.8    0.188    0.201    3.483    4.221
 hfx_ks_matrix                       91  8.0    0.001    0.001    3.903    3.919
 rs_grid_zero                      1358 11.9    3.749    3.916    3.749    3.916
 transfer_pw2rs_30                  271 12.0    1.875    2.044    3.361    3.732
 multiply_cannon_metrocomm3       12616 13.3    0.017    0.017    2.134    3.701
 mp_alltoall_i22                   5050 11.4    2.453    3.679    2.453    3.679
 transfer_pw2rs_90                  271 12.0    0.907    1.041    3.213    3.678
 dbcsr_desymmetrize_deep           1240 10.3    0.014    0.020    2.408    3.605
 pw_copy_from_array                2805 12.7    3.279    3.456    3.279    3.456
 pw_integral_ab_c1d_c1d_gs          271 10.3    2.939    2.990    3.243    3.413
 transfer_rs2pw_90                  273 11.6    0.900    0.998    3.021    3.179
 mp_sum_l                          6065 10.5    1.897    3.142    1.897    3.142
 pw_zero                           2892 10.6    2.754    2.935    2.754    2.935
 cp_dbcsr_sm_fm_multiply_core      1126  9.6    0.002    0.002    1.806    2.841
 transfer_rs2pw_30                  273 11.6    0.882    1.018    2.386    2.583
 mp_sendrecv_dv                   16926 12.6    2.149    2.329    2.149    2.329
 integrate_four_center_main         451 10.8    0.067    0.087    1.830    1.928
 qs_energies_init_hamiltonians        1  3.0    0.000    0.000    1.906    1.906
 integrate_four_center_bin        31476 11.8    1.763    1.855    1.763    1.855
 build_core_hamiltonian_matrix        1  4.0    0.000    0.000    1.675    1.675
 overlap_condnum                      1  5.0    0.000    0.000    1.674    1.674
 mp_max_i                           774  5.1    0.763    1.652    0.763    1.652
 multiply_cannon_metrocomm1       12616 13.3    0.008    0.009    0.590    1.592
 Vh_1c_gg_integrals                 271  9.3    0.030    0.079    0.756    1.583
 qs_scf_new_mos                      91  5.0    0.001    0.001    1.342    1.557
 dbcsr_complete_redistribute       3810 10.4    0.090    0.111    1.378    1.405
 mp_sum_dm                        16464  9.9    1.008    1.323    1.008    1.323
 cp_fm_diag_elpa                    142  7.2    0.000    0.000    1.301    1.303
 cp_fm_diag_elpa_base               142  8.3    0.627    1.013    0.649    1.161
 mp_isend_dv                      53612 13.6    0.714    1.138    0.714    1.138
 scale_and_distribute               542 11.3    0.641    1.114    0.641    1.114
 calculate_xc_2nd_deriv_atom        180  9.0    0.107    0.240    0.324    1.104
 fft_wrap_pw1pw2_30                 544 11.8    0.041    0.043    0.825    1.071
 gaVxcgb_GC                         542  9.7    0.224    1.058    0.224    1.058
 prepare_dr1dr                      900 11.6    0.977    1.051    0.977    1.051
 grid_integrate_task_list           271 10.0    0.427    1.016    0.427    1.016
 make_m2s                          3154 11.3    0.019    0.020    0.420    0.991
 cp_fm_redistribute_end             142  8.2    0.501    0.980    0.504    0.982
 multiply_cannon_metrocomm4       11039 13.3    0.018    0.019    0.455    0.978
 rs_gather_matrices                 271 10.0    0.005    0.008    0.656    0.960
 transfer_rs2pw_10                  273 11.6    0.202    0.225    0.847    0.946
 make_images                       3154 12.3    0.045    0.046    0.356    0.923
 mp_allgather_i34                  1577 12.3    0.820    0.889    0.820    0.889
 rs_scatter_matrices                273  9.6    0.003    0.004    0.279    0.814
 calculate_dm_sparse                 91  6.0    0.000    0.001    0.584    0.797
 mp_alltoall_i11v                 12670 11.4    0.235    0.793    0.235    0.793
 tddfpt_apply_energy_diff             9  8.0    0.001    0.001    0.743    0.743
 hybrid_alltoall_any               4394 13.4    0.019    0.021    0.164    0.727
 eigensolver_symm                    91  6.0    0.006    0.007    0.700    0.701
 make_images_data                  3154 13.3    0.020    0.023    0.124    0.690
 transfer_pw2rs_10                  271 12.0    0.271    0.298    0.635    0.680
 tddfpt_compute_residual_vects        8  7.0    0.000    0.000    0.632    0.633
 mp_max_d                           253  8.2    0.343    0.574    0.343    0.574
 self_consistency_check              91  5.0    0.000    0.000    0.342    0.574
 cp_sm_mix                           91  6.0    0.000    0.001    0.342    0.573
 init_scf_run                         1  3.0    0.000    0.000    0.559    0.559
 scf_env_initial_rho_setup            1  4.0    0.000    0.000    0.550    0.550
 pw_poisson_rebuild                 271 10.3    0.000    0.000    0.528    0.548
 ps_wavelet_create                    1 10.0    0.000    0.000    0.528    0.548
 RS_z_slice_distribution              1 11.0    0.462    0.499    0.528    0.548
 mp_sum_dv                        22288  8.9    0.412    0.542    0.412    0.542
 parallel_gemm_fm                  1699  8.2    0.001    0.002    0.504    0.531
 parallel_gemm_fm_cosma            1699  9.2    0.503    0.530    0.503    0.530
 powell_optimize                 333053 11.0    0.482    0.518    0.482    0.518
 calculate_vxc_atom                  91  8.0    0.052    0.085    0.501    0.502
 pw_scale                           724  9.5    0.455    0.493    0.455    0.493
 cp_fm_power                          1  6.0    0.000    0.000    0.421    0.477
 tddfpt_orthonormalize_psi1_psi      10  6.9    0.010    0.011    0.461    0.462
 calculate_rho_atom                1088  9.7    0.310    0.457    0.310    0.457
 copy_fm_to_dbcsr                  2569  9.5    0.007    0.007    0.409    0.444
 calc_screening_functions             1 10.0    0.094    0.096    0.370    0.408
 qs_init_subsys                       1  2.0    0.001    0.001    0.385    0.385
 qs_env_setup                         1  3.0    0.000    0.000    0.382    0.382
 qs_env_rebuild_pw_env                2  3.5    0.000    0.000    0.382    0.382
 pw_env_rebuild                       1  5.0    0.000    0.000    0.382    0.382
 pw_grid_setup                        4  6.0    0.000    0.000    0.374    0.374
 pw_grid_setup_internal               4  7.0    0.005    0.006    0.374    0.374
 cp_fm_redistribute_start           142  8.2    0.137    0.346    0.148    0.358
 tddfpt_construct_ground_state_       1  6.0    0.000    0.000    0.355    0.357
 cp_fm_uplo_to_full                 143  9.2    0.038    0.328    0.038    0.328
 pw_grid_sort                         4  8.0    0.219    0.225    0.307    0.315
 calculate_rho_atom_coeff           273  8.6    0.067    0.076    0.309    0.310
 calc_pair_dist_radii                 1 10.0    0.090    0.092    0.296    0.303
 tddfpt_print_nto_analysis            1  6.0    0.001    0.002    0.294    0.294
 mp_bcast_b_src                     233  7.7    0.065    0.252    0.065    0.252
 tddfpt_compute_ritz_vects            9  7.0    0.002    0.003    0.251    0.252
 fft_wrap_pw1pw2_10                 544 11.8    0.009    0.010    0.208    0.251
 create_kernel_env                    1  6.0    0.000    0.000    0.224    0.246
 xc_prep_2nd_deriv                    1  7.0    0.000    0.000    0.223    0.246
 qs_env_update_s_mstruct              1  4.0    0.000    0.000    0.053    0.231
 qs_create_task_list                  1  5.0    0.000    0.000    0.053    0.230
 generate_qs_task_list                1  6.0    0.000    0.000    0.053    0.230
 distribute_tasks                     1  7.0    0.000    0.000    0.052    0.230
 calculate_ecore_overlap              1  4.0    0.000    0.000    0.178    0.230
 create_local_tasks                   1  8.0    0.000    0.000    0.051    0.229
 mp_alltoall_l11v                     1  9.0    0.051    0.229    0.051    0.229
 arnoldi_conjugate_gradient           5  6.0    0.005    0.007    0.229    0.229
 mp_isendrecv_dv                  44764 12.2    0.098    0.213    0.098    0.213
 dbcsr_finalize                   10138 11.3    0.024    0.035    0.149    0.192
 update_ks_atom                     271  8.7    0.045    0.054    0.128    0.156
 cp_fm_write_unformatted             25  7.0    0.148    0.152    0.148    0.152
 cp_fm_geeig                         20  7.0    0.001    0.001    0.149    0.150
 cp_fm_trace_a1b1t1_aa            16500  8.0    0.035    0.037    0.148    0.149
 xc_2nd_deriv_of_r                  720 10.0    0.009    0.029    0.048    0.148
 create_qs_kind_set                   1  2.0    0.000    0.000    0.139    0.140
 read_qs_kind                         4  3.0    0.062    0.080    0.139    0.140
 dbcsr_sym_matrix_vector_mult      1715  7.0    0.012    0.014    0.131    0.137
 make_images_sizes                 3154 13.3    0.002    0.003    0.116    0.134
 mp_alltoall_i44                   3154 14.3    0.114    0.132    0.114    0.132
 mp_cart_create                    2328 10.5    0.115    0.123    0.116    0.125
 integrate_four_center_dist_KS      451 10.8    0.018    0.023    0.116    0.123
 mp_cart_sub                       2480 11.3    0.119    0.121    0.119    0.121
 mp_bcast_dm                      10840  9.7    0.083    0.118    0.083    0.118
 tddfpt_write_restart                 1  6.0    0.004    0.111    0.117    0.117
 dbcsr_merge_all                   8307 12.3    0.054    0.067    0.086    0.105
 xc_pw_smooth                        91 10.0    0.000    0.000    0.093    0.105
 tddfpt_orthogonalize_psi1_psi0      10  6.9    0.000    0.000    0.075    0.098
 dbcsr_add_d                       2646  7.1    0.001    0.001    0.024    0.093
 dbcsr_create_new                 32326 11.2    0.067    0.070    0.089    0.093
 dbcsr_add_anytype                 2646  8.1    0.003    0.010    0.023    0.092
 sort_shells                          4  9.0    0.088    0.092    0.088    0.092
 mp_isend_dm3                      9798 12.7    0.071    0.089    0.071    0.089
 offload_free_buffer                279 10.1    0.068    0.084    0.068    0.084
 mp_rank_compare                   5525 14.0    0.074    0.084    0.074    0.084
 integrate_four_center_getP         451 10.8    0.018    0.019    0.080    0.084
 parser_read_line                 27704  4.0    0.004    0.005    0.077    0.079
 multiply_cannon_multrec          12616 13.3    0.024    0.071    0.030    0.078
 parser_read_line_low                39  5.0    0.002    0.021    0.072    0.075
 tddfpt_dipole_operator               1  5.0    0.000    0.000    0.075    0.075
 broadcast_input_information         39  6.0    0.006    0.006    0.070    0.074
 cp_fm_norm                           2  6.0    0.056    0.073    0.056    0.073
 cp_fm_syrk                           1  7.0    0.063    0.072    0.063    0.072
 dbcsr_iterator_start             47364 10.8    0.046    0.055    0.057    0.071
 scf_post_calculation_gpw             1  3.0    0.000    0.000    0.070    0.070
 write_available_results              1  4.0    0.000    0.000    0.070    0.070
 write_mo_free_results                1  5.0    0.009    0.010    0.070    0.070
 dbcsr_work_create                14278 12.2    0.034    0.042    0.054    0.068
 mixing_init                          1  5.0    0.064    0.067    0.067    0.067
 copy_fm_to_dbcsr_bc               2569 10.5    0.015    0.016    0.057    0.061
 external_control                    91  5.0    0.002    0.055    0.058    0.059
 calculate_rho0_atom               1088  9.7    0.053    0.055    0.053    0.055
 integrate_four_center_load         451 10.8    0.000    0.001    0.046    0.054
 dbcsr_data_new                  143769 12.4    0.047    0.054    0.047    0.054
 vxc_of_r_new                       364  9.0    0.002    0.008    0.018    0.054
 hfx_load_balance                     1 11.0    0.000    0.000    0.045    0.054
 dbcsr_col_vec_to_rep_row          1715  8.0    0.006    0.006    0.047    0.053
 mp_bcast_i_src                     156  7.0    0.047    0.052    0.047    0.052
 tddfpt_print_excitation_analys       1  6.0    0.000    0.001    0.051    0.051
 hfx_load_balance_range               1 12.0    0.000    0.000    0.039    0.047
 dbcsr_work_destroy_all           14278 13.1    0.023    0.030    0.035    0.047
 dbcsr_data_release              209659 12.5    0.038    0.046    0.038    0.046
 dbcsr_copy                       10766  8.7    0.018    0.020    0.041    0.044
 -------------------------------------------------------------------------------

 The number of warnings for this run is : 1
 
 -------------------------------------------------------------------------------
  **** **** ******  **  PROGRAM ENDED AT                 2025-06-23 15:34:46.581
 ***** ** ***  *** **   PROGRAM RAN ON                                  n2cn0456
 **    ****   ******    PROGRAM RAN BY                                  metdyn02
 ***** **    ** ** **   PROGRAM PROCESS ID                                537437
  **** **  *******  **  PROGRAM STOPPED IN /scratch/hpc-prf-metdyn/metdyn02_Remi
                                           /10_MOL/05_MOL/aUKBqsEOTmq69kFe5R_nOg
                                           /5k_set_final_qzvp/UVALIN/mini-SZV/TD
                                           DFT/1e-4
