 DBCSR| CPU Multiplication driver                                           BLAS (U)
 DBCSR| Multrec recursion limit                                              512 (U)
 DBCSR| Multiplication stack size                                           1000 (D)
 DBCSR| Maximum elements for images                                    UNLIMITED (U)
 DBCSR| Multiplicative factor virtual images                                   1 (U)
 DBCSR| Use multiplication densification                                       T (D)
 DBCSR| Multiplication size stacks                                             3 (U)
 DBCSR| Use memory pool for CPU allocation                                     F (U)
 DBCSR| Number of 3D layers                                               SINGLE (U)
 DBCSR| Use MPI memory allocation                                              F (U)
 DBCSR| Use RMA algorithm                                                      F (U)
 DBCSR| Use Communication thread                                               T (U)
 DBCSR| Communication thread load                                             45 (D)
 DBCSR| MPI: My process id                                                     0
 DBCSR| MPI: Number of processes                                             512
 DBCSR| OMP: Current number of threads                                        12
 DBCSR| OMP: Max number of threads                                            12
 DBCSR| Split modifier for TAS multiplication algorithm                  1.0E+00 (U)


  **** **** ******  **  PROGRAM STARTED AT               2025-04-14 23:30:47.017
 ***** ** ***  *** **   PROGRAM STARTED ON                          i01r09c05s12
 **    ****   ******    PROGRAM STARTED BY                               di38fab
 ***** **    ** ** **   PROGRAM PROCESS ID                                933995
  **** **  *******  **  PROGRAM STARTED IN /hppfs/scratch/04/di38fab/05_MOL/aUKB
                                           qsEOTmq69kFe5R_nOg/5k_set_final_qzvp/
                                           MNPYDO01/aug-cc-pV5Z/TDDFT

 CP2K| version string:                 CP2K version 2025.1 (Development Version)
 CP2K| source code revision number:                             unknown revision
 CP2K| cp2kflags: omp libint fftw3 libxc parallel scalapack max_contr=4         
 CP2K| is freely available from                            https://www.cp2k.org/
 CP2K| Program compiled at                         Thu Apr 10 16:20:23 CEST 2025
 CP2K| Program compiled on                                               login01
 CP2K| Program compiled for                                        Supermuc-foss
 CP2K| Data directory path                  /hppfs/work/pn36zo/di38fab/cp2k/data
 CP2K| Input file name                                                    GW.inp

 GLOBAL| Force Environment number                                              1
 GLOBAL| Basis set file name            /hppfs/scratch/04/di38fab/04_TMD/BASIS_A
 GLOBAL| Potential file name            /hppfs/work/pn36zo/di38fab/cp2k/data/ALL
 GLOBAL| MM Potential file name                                     MM_POTENTIAL
 GLOBAL| Coordinate file name                                      __STD_INPUT__
 GLOBAL| Method name                                                        CP2K
 GLOBAL| Project name                                                       MoS2
 GLOBAL| Run type                                                         ENERGY
 GLOBAL| FFT library                                                       FFTW3
 GLOBAL| Diagonalization library                                       ScaLAPACK
 GLOBAL| DGEMM library                                                      BLAS
 GLOBAL| Orthonormality check for eigenvectors                          DISABLED
 GLOBAL| Matrix multiplication library                                 ScaLAPACK
 GLOBAL| All-to-all communication in single precision                          F
 GLOBAL| FFTs using library dependent lengths                                  F
 GLOBAL| Grid backend                                                       AUTO
 GLOBAL| Global print level                                               MEDIUM
 GLOBAL| MPI I/O enabled                                                       T
 GLOBAL| Total number of message passing processes                           512
 GLOBAL| Number of threads for this process                                   12
 GLOBAL| This output is from process                                           0
 GLOBAL| OpenMP stack size per thread (OMP_STACKSIZE)                    default
 GLOBAL| CPU model name             Intel(R) Xeon(R) Platinum 8174 CPU @ 3.10GHz

 MEMORY| system memory details [Kb]
 MEMORY|                        rank 0           min           max       average
 MEMORY| MemTotal             98436664      98424324      98436900      98436574
 MEMORY| MemFree              84904528      84080072      87152744      84844361
 MEMORY| Buffers                     0             0             0             0
 MEMORY| Cached                2385460       2195320       2604356       2386745
 MEMORY| Slab                  1273084        873532       1273084       1223043
 MEMORY| SReclaimable           283848        186152        291764        275912
 MEMORY| MemLikelyFree        87573836      86725036      89579388      87507019


 *** Fundamental physical constants (SI units) ***

 *** Literature: B. J. Mohr and B. N. Taylor,
 ***             CODATA recommended values of the fundamental physical
 ***             constants: 2006, Web Version 5.1
 ***             http://physics.nist.gov/constants

 Speed of light in vacuum [m/s]                             2.99792458000000E+08
 Magnetic constant or permeability of vacuum [N/A**2]       1.25663706143592E-06
 Electric constant or permittivity of vacuum [F/m]          8.85418781762039E-12
 Planck constant (h) [J*s]                                  6.62606896000000E-34
 Planck constant (h-bar) [J*s]                              1.05457162825177E-34
 Elementary charge [C]                                      1.60217648700000E-19
 Electron mass [kg]                                         9.10938215000000E-31
 Electron g factor [ ]                                     -2.00231930436220E+00
 Proton mass [kg]                                           1.67262163700000E-27
 Fine-structure constant                                    7.29735253760000E-03
 Rydberg constant [1/m]                                     1.09737315685270E+07
 Avogadro constant [1/mol]                                  6.02214179000000E+23
 Boltzmann constant [J/K]                                   1.38065040000000E-23
 Atomic mass unit [kg]                                      1.66053878200000E-27
 Bohr radius [m]                                            5.29177208590000E-11

 *** Conversion factors ***

 [u] -> [a.u.]                                              1.82288848426455E+03
 [Angstrom] -> [Bohr] = [a.u.]                              1.88972613288564E+00
 [a.u.] = [Bohr] -> [Angstrom]                              5.29177208590000E-01
 [a.u.] -> [s]                                              2.41888432650478E-17
 [a.u.] -> [fs]                                             2.41888432650478E-02
 [a.u.] -> [J]                                              4.35974393937059E-18
 [a.u.] -> [N]                                              8.23872205491840E-08
 [a.u.] -> [K]                                              3.15774647902944E+05
 [a.u.] -> [kJ/mol]                                         2.62549961709828E+03
 [a.u.] -> [kcal/mol]                                       6.27509468713739E+02
 [a.u.] -> [Pa]                                             2.94210107994716E+13
 [a.u.] -> [bar]                                            2.94210107994716E+08
 [a.u.] -> [atm]                                            2.90362800883016E+08
 [a.u.] -> [eV]                                             2.72113838565563E+01
 [a.u.] -> [Hz]                                             6.57968392072181E+15
 [a.u.] -> [1/cm] (wave numbers)                            2.19474631370540E+05
 [a.u./Bohr**2] -> [1/cm]                                   5.14048714338585E+03
 

 CELL_TOP| Volume [angstrom^3]:                                     27000.000000
 CELL_TOP| Vector a [angstrom    30.000     0.000     0.000   |a| =    30.000000
 CELL_TOP| Vector b [angstrom     0.000    30.000     0.000   |b| =    30.000000
 CELL_TOP| Vector c [angstrom     0.000     0.000    30.000   |c| =    30.000000
 CELL_TOP| Angle (b,c), alpha [degree]:                                90.000000
 CELL_TOP| Angle (a,c), beta  [degree]:                                90.000000
 CELL_TOP| Angle (a,b), gamma [degree]:                                90.000000
 CELL_TOP| Numerically orthorhombic:                                         YES
 CELL_TOP| Periodicity                                                      NONE

 GENERATE|  Preliminary Number of Bonds generated:                             0
 GENERATE|  Achieved consistency in connectivity generation.

 CELL| Volume [angstrom^3]:                                         27000.000000
 CELL| Vector a [angstrom]:      30.000     0.000     0.000   |a| =    30.000000
 CELL| Vector b [angstrom]:       0.000    30.000     0.000   |b| =    30.000000
 CELL| Vector c [angstrom]:       0.000     0.000    30.000   |c| =    30.000000
 CELL| Angle (b,c), alpha [degree]:                                    90.000000
 CELL| Angle (a,c), beta  [degree]:                                    90.000000
 CELL| Angle (a,b), gamma [degree]:                                    90.000000
 CELL| Numerically orthorhombic:                                             YES
 CELL| Periodicity                                                          NONE

 CELL_REF| Volume [angstrom^3]:                                     27000.000000
 CELL_REF| Vector a [angstrom    30.000     0.000     0.000   |a| =    30.000000
 CELL_REF| Vector b [angstrom     0.000    30.000     0.000   |b| =    30.000000
 CELL_REF| Vector c [angstrom     0.000     0.000    30.000   |c| =    30.000000
 CELL_REF| Angle (b,c), alpha [degree]:                                90.000000
 CELL_REF| Angle (a,c), beta  [degree]:                                90.000000
 CELL_REF| Angle (a,b), gamma [degree]:                                90.000000
 CELL_REF| Numerically orthorhombic:                                         YES
 CELL_REF| Periodicity                                                      NONE

 *******************************************************************************
 *******************************************************************************
 **                                                                           **
 **     #####                         ##              ##                      **
 **    ##   ##            ##          ##              ##                      **
 **   ##     ##                       ##            ######                    **
 **   ##     ##  ##   ##  ##   #####  ##  ##   ####   ##    #####    #####    **
 **   ##     ##  ##   ##  ##  ##      ## ##   ##      ##   ##   ##  ##   ##   **
 **   ##  ## ##  ##   ##  ##  ##      ####     ###    ##   ######   ######    **
 **    ##  ###   ##   ##  ##  ##      ## ##      ##   ##   ##       ##        **
 **     #######   #####   ##   #####  ##  ##  ####    ##    #####   ##        **
 **           ##                                                    ##        **
 **                                                                           **
 **                                                ... make the atoms dance   **
 **                                                                           **
 **            Copyright (C) by CP2K developers group (2000-2025)             **
 **                      J. Chem. Phys. 152, 194103 (2020)                    **
 **                                                                           **
 *******************************************************************************

 DFT| Spin restricted Kohn-Sham (RKS) calculation                            RKS
 DFT| Multiplicity                                                             1
 DFT| Number of spin states                                                    1
 DFT| Charge                                                                   0
 DFT| Self-interaction correction (SIC)                                       NO
 DFT| Cutoffs: density                                              1.000000E-10
 DFT|          gradient                                             1.000000E-10
 DFT|          tau                                                  1.000000E-10
 DFT|          cutoff_smoothing_range                               0.000000E+00
 DFT| XC density smoothing                                                  NONE
 DFT| XC derivatives                                                          PW

 FUNCTIONAL| PBE:
 FUNCTIONAL| J.P.Perdew, K.Burke, M.Ernzerhof, Phys. Rev. Letter, vol. 77, n 18,
 FUNCTIONAL|  pp. 3865-3868, (1996)sx=0.750sc=1.000{spin unpolarized}           


 QS| Method:                                                                GAPW
 QS| Density plane wave grid type                        NON-SPHERICAL FULLSPACE
 QS| Number of grid levels:                                                    4
 QS| Density cutoff [a.u.]:                                                250.0
 QS| Multi grid cutoff [a.u.]: 1) grid level                               250.0
 QS|                           2) grid level                                83.3
 QS|                           3) grid level                                27.8
 QS|                           4) grid level                                 9.3
 QS| Grid level progression factor:                                          3.0
 QS| Relative density cutoff [a.u.]:                                        50.0
 QS| Interaction thresholds: eps_pgf_orb:                                1.0E-12
 QS|                         eps_filter_matrix:                          0.0E+00
 QS|                         eps_core_charge:                            1.0E-14
 QS|                         eps_rho_gspace:                             1.0E-12
 QS|                         eps_rho_rspace:                             1.0E-12
 QS|                         eps_gvg_rspace:                             1.0E-06
 QS|                         eps_ppl:                                    1.0E-02
 QS|                         eps_ppnl:                                   1.0E-08
 QS| GAPW|      One center basis from orbital basis primitives
 QS| GAPW|                   eps_fit:                                    1.0E-04
 QS| GAPW|                   eps_iso:                                    1.0E-12
 QS| GAPW|                   eps_svd:                                    1.0E-08
 QS| GAPW|                   eps_cpc:                                    1.0E-12
 QS| GAPW|   atom-r-grid: quadrature:                                     GC_LOG
 QS| GAPW|      atom-s-grid:  max l :                                         10
 QS| GAPW|      max_l_rho0 :                                                   2


 ATOMIC KIND INFORMATION

  1. Atomic kind: N                                     Number of atoms:       2

     Orbital Basis Set                                               aug-cc-pV5Z

       Number of orbital shell sets:                                          12
       Number of orbital shells:                                              27
       Number of primitive Cartesian functions:                               38
       Number of Cartesian basis functions:                                  182
       Number of spherical basis functions:                                  127
       Norm type:                                                              2

       Normalised Cartesian orbitals:

                        Set   Shell   Orbital            Exponent    Coefficient

                          1       1    1px               0.036900       0.023053
                          1       1    1py               0.036900       0.023053
                          1       1    1pz               0.036900       0.023053

                          2       1    1s                0.051800       0.077385

                          3       1    1dx2              0.097100       0.027800
                          3       1    1dxy              0.097100       0.048151
                          3       1    1dxz              0.097100       0.048151
                          3       1    1dy2              0.097100       0.027800
                          3       1    1dyz              0.097100       0.048151
                          3       1    1dz2              0.097100       0.027800

                          4       1    1px             147.000000       0.000000
                                                        34.760000       0.000000
                                                        11.000000       0.000000
                                                         3.995000       0.000000
                                                         1.587000       2.538991
                                                         0.653300       0.000000
                                                         0.268600       0.000000
                                                         0.106700       0.000000
                          4       1    1py             147.000000       0.000000
                                                        34.760000       0.000000
                                                        11.000000       0.000000
                                                         3.995000       0.000000
                                                         1.587000       2.538991
                                                         0.653300       0.000000
                                                         0.268600       0.000000
                                                         0.106700       0.000000
                          4       1    1pz             147.000000       0.000000
                                                        34.760000       0.000000
                                                        11.000000       0.000000
                                                         3.995000       0.000000
                                                         1.587000       2.538991
                                                         0.653300       0.000000
                                                         0.268600       0.000000
                                                         0.106700       0.000000

                          4       2    2px             147.000000       0.000000
                                                        34.760000       0.000000
                                                        11.000000       0.000000
                                                         3.995000       0.000000
                                                         1.587000       0.000000
                                                         0.653300       0.837203
                                                         0.268600       0.000000
                                                         0.106700       0.000000
                          4       2    2py             147.000000       0.000000
                                                        34.760000       0.000000
                                                        11.000000       0.000000
                                                         3.995000       0.000000
                                                         1.587000       0.000000
                                                         0.653300       0.837203
                                                         0.268600       0.000000
                                                         0.106700       0.000000
                          4       2    2pz             147.000000       0.000000
                                                        34.760000       0.000000
                                                        11.000000       0.000000
                                                         3.995000       0.000000
                                                         1.587000       0.000000
                                                         0.653300       0.837203
                                                         0.268600       0.000000
                                                         0.106700       0.000000

                          4       3    3px             147.000000       0.650807
                                                        34.760000       0.852013
                                                        11.000000       0.937059
                                                         3.995000       0.871164
                                                         1.587000       0.629909
                                                         0.653300       0.313544
                                                         0.268600       0.096033
                                                         0.106700       0.011156
                          4       3    3py             147.000000       0.650807
                                                        34.760000       0.852013
                                                        11.000000       0.937059
                                                         3.995000       0.871164
                                                         1.587000       0.629909
                                                         0.653300       0.313544
                                                         0.268600       0.096033
                                                         0.106700       0.011156
                          4       3    3pz             147.000000       0.650807
                                                        34.760000       0.852013
                                                        11.000000       0.937059
                                                         3.995000       0.871164
                                                         1.587000       0.629909
                                                         0.653300       0.313544
                                                         0.268600       0.096033
                                                         0.106700       0.011156

                          4       4    4px             147.000000       0.000000
                                                        34.760000       0.000000
                                                        11.000000       0.000000
                                                         3.995000       0.000000
                                                         1.587000       0.000000
                                                         0.653300       0.000000
                                                         0.268600       0.275628
                                                         0.106700       0.000000
                          4       4    4py             147.000000       0.000000
                                                        34.760000       0.000000
                                                        11.000000       0.000000
                                                         3.995000       0.000000
                                                         1.587000       0.000000
                                                         0.653300       0.000000
                                                         0.268600       0.275628
                                                         0.106700       0.000000
                          4       4    4pz             147.000000       0.000000
                                                        34.760000       0.000000
                                                        11.000000       0.000000
                                                         3.995000       0.000000
                                                         1.587000       0.000000
                                                         0.653300       0.000000
                                                         0.268600       0.275628
                                                         0.106700       0.000000

                          4       5    5px             147.000000       0.000000
                                                        34.760000       0.000000
                                                        11.000000       0.000000
                                                         3.995000       0.000000
                                                         1.587000       0.000000
                                                         0.653300       0.000000
                                                         0.268600       0.000000
                                                         0.106700       0.086925
                          4       5    5py             147.000000       0.000000
                                                        34.760000       0.000000
                                                        11.000000       0.000000
                                                         3.995000       0.000000
                                                         1.587000       0.000000
                                                         0.653300       0.000000
                                                         0.268600       0.000000
                                                         0.106700       0.086925
                          4       5    5pz             147.000000       0.000000
                                                        34.760000       0.000000
                                                        11.000000       0.000000
                                                         3.995000       0.000000
                                                         1.587000       0.000000
                                                         0.653300       0.000000
                                                         0.268600       0.000000
                                                         0.106700       0.086925

                          5       1    1s           129200.000000       0.121422
                                                     19350.000000       0.230350
                                                      4404.000000       0.397627
                                                      1248.000000       0.647228
                                                       408.000000       0.995089
                                                       148.200000       1.418775
                                                        58.500000       1.810832
                                                        24.590000       1.933640
                                                        10.810000       1.535474
                                                         4.882000       0.672463
                                                         2.195000       0.090187
                                                         0.871500       0.001177
                                                         0.350400       0.000271
                                                         0.139700      -0.000001

                          5       2    2s           129200.000000       0.000000
                                                     19350.000000       0.000000
                                                      4404.000000       0.000000
                                                      1248.000000       0.000000
                                                       408.000000       0.000000
                                                       148.200000       0.000000
                                                        58.500000       0.000000
                                                        24.590000       0.000000
                                                        10.810000       0.000000
                                                         4.882000       0.000000
                                                         2.195000       1.285245
                                                         0.871500       0.000000
                                                         0.350400       0.000000
                                                         0.139700       0.000000

                          5       3    3s           129200.000000       0.000000
                                                     19350.000000       0.000000
                                                      4404.000000       0.000000
                                                      1248.000000       0.000000
                                                       408.000000       0.000000
                                                       148.200000       0.000000
                                                        58.500000       0.000000
                                                        24.590000       0.000000
                                                        10.810000       0.000000
                                                         4.882000       0.000000
                                                         2.195000       0.000000
                                                         0.871500       0.642851
                                                         0.350400       0.000000
                                                         0.139700       0.000000

                          5       4    4s           129200.000000       0.000000
                                                     19350.000000       0.000000
                                                      4404.000000       0.000000
                                                      1248.000000       0.000000
                                                       408.000000       0.000000
                                                       148.200000       0.000000
                                                        58.500000       0.000000
                                                        24.590000       0.000000
                                                        10.810000       0.000000
                                                         4.882000       0.000000
                                                         2.195000       0.000000
                                                         0.871500       0.000000
                                                         0.350400       0.324589
                                                         0.139700       0.000000

                          5       5    5s           129200.000000      -0.029141
                                                     19350.000000      -0.050279
                                                      4404.000000      -0.087462
                                                      1248.000000      -0.143363
                                                       408.000000      -0.221016
                                                       148.200000      -0.322915
                                                        58.500000      -0.426325
                                                        24.590000      -0.503842
                                                        10.810000      -0.484089
                                                         4.882000      -0.344081
                                                         2.195000      -0.009319
                                                         0.871500       0.235401
                                                         0.350400       0.177845
                                                         0.139700       0.035282

                          5       6    6s           129200.000000       0.000000
                                                     19350.000000       0.000000
                                                      4404.000000       0.000000
                                                      1248.000000       0.000000
                                                       408.000000       0.000000
                                                       148.200000       0.000000
                                                        58.500000       0.000000
                                                        24.590000       0.000000
                                                        10.810000       0.000000
                                                         4.882000       0.000000
                                                         2.195000       0.000000
                                                         0.871500       0.000000
                                                         0.350400       0.000000
                                                         0.139700       0.162857

                          6       1    1fx3              0.192000       0.035924
                          6       1    1fx2y             0.192000       0.080328
                          6       1    1fx2z             0.192000       0.080328
                          6       1    1fxy2             0.192000       0.080328
                          6       1    1fxyz             0.192000       0.139132
                          6       1    1fxz2             0.192000       0.080328
                          6       1    1fy3              0.192000       0.035924
                          6       1    1fy2z             0.192000       0.080328
                          6       1    1fyz2             0.192000       0.080328
                          6       1    1fz3              0.192000       0.035924

                          7       1    1dx2              4.647000      24.208152
                                                         1.813000       0.000000
                                                         0.707000       0.000000
                                                         0.276000       0.000000
                          7       1    1dxy              4.647000      41.929749
                                                         1.813000       0.000000
                                                         0.707000       0.000000
                                                         0.276000       0.000000
                          7       1    1dxz              4.647000      41.929749
                                                         1.813000       0.000000
                                                         0.707000       0.000000
                                                         0.276000       0.000000
                          7       1    1dy2              4.647000      24.208152
                                                         1.813000       0.000000
                                                         0.707000       0.000000
                                                         0.276000       0.000000
                          7       1    1dyz              4.647000      41.929749
                                                         1.813000       0.000000
                                                         0.707000       0.000000
                                                         0.276000       0.000000
                          7       1    1dz2              4.647000      24.208152
                                                         1.813000       0.000000
                                                         0.707000       0.000000
                                                         0.276000       0.000000

                          7       2    2dx2              4.647000       0.000000
                                                         1.813000       4.662358
                                                         0.707000       0.000000
                                                         0.276000       0.000000
                          7       2    2dxy              4.647000       0.000000
                                                         1.813000       8.075441
                                                         0.707000       0.000000
                                                         0.276000       0.000000
                          7       2    2dxz              4.647000       0.000000
                                                         1.813000       8.075441
                                                         0.707000       0.000000
                                                         0.276000       0.000000
                          7       2    2dy2              4.647000       0.000000
                                                         1.813000       4.662358
                                                         0.707000       0.000000
                                                         0.276000       0.000000
                          7       2    2dyz              4.647000       0.000000
                                                         1.813000       8.075441
                                                         0.707000       0.000000
                                                         0.276000       0.000000
                          7       2    2dz2              4.647000       0.000000
                                                         1.813000       4.662358
                                                         0.707000       0.000000
                                                         0.276000       0.000000

                          7       3    3dx2              4.647000       0.000000
                                                         1.813000       0.000000
                                                         0.707000       0.897209
                                                         0.276000       0.000000
                          7       3    3dxy              4.647000       0.000000
                                                         1.813000       0.000000
                                                         0.707000       1.554011
                                                         0.276000       0.000000
                          7       3    3dxz              4.647000       0.000000
                                                         1.813000       0.000000
                                                         0.707000       1.554011
                                                         0.276000       0.000000
                          7       3    3dy2              4.647000       0.000000
                                                         1.813000       0.000000
                                                         0.707000       0.897209
                                                         0.276000       0.000000
                          7       3    3dyz              4.647000       0.000000
                                                         1.813000       0.000000
                                                         0.707000       1.554011
                                                         0.276000       0.000000
                          7       3    3dz2              4.647000       0.000000
                                                         1.813000       0.000000
                                                         0.707000       0.897209
                                                         0.276000       0.000000

                          7       4    4dx2              4.647000       0.000000
                                                         1.813000       0.000000
                                                         0.707000       0.000000
                                                         0.276000       0.172982
                          7       4    4dxy              4.647000       0.000000
                                                         1.813000       0.000000
                                                         0.707000       0.000000
                                                         0.276000       0.299613
                          7       4    4dxz              4.647000       0.000000
                                                         1.813000       0.000000
                                                         0.707000       0.000000
                                                         0.276000       0.299613
                          7       4    4dy2              4.647000       0.000000
                                                         1.813000       0.000000
                                                         0.707000       0.000000
                                                         0.276000       0.172982
                          7       4    4dyz              4.647000       0.000000
                                                         1.813000       0.000000
                                                         0.707000       0.000000
                                                         0.276000       0.299613
                          7       4    4dz2              4.647000       0.000000
                                                         1.813000       0.000000
                                                         0.707000       0.000000
                                                         0.276000       0.172982

                          8       1    1gx4              0.436000       0.113507
                          8       1    1gx3y             0.436000       0.300312
                          8       1    1gx3z             0.436000       0.300312
                          8       1    1gx2y2            0.436000       0.387701
                          8       1    1gx2yz            0.436000       0.671517
                          8       1    1gx2z2            0.436000       0.387701
                          8       1    1gxy3             0.436000       0.300312
                          8       1    1gxy2z            0.436000       0.671517
                          8       1    1gxyz2            0.436000       0.671517
                          8       1    1gxz3             0.436000       0.300312
                          8       1    1gy4              0.436000       0.113507
                          8       1    1gy3z             0.436000       0.300312
                          8       1    1gy2z2            0.436000       0.387701
                          8       1    1gyz3             0.436000       0.300312
                          8       1    1gz4              0.436000       0.113507

                          9       1    1fx3              2.942000      16.687853
                                                         1.204000       0.000000
                                                         0.493000       0.000000
                          9       1    1fx2y             2.942000      37.315173
                                                         1.204000       0.000000
                                                         0.493000       0.000000
                          9       1    1fx2z             2.942000      37.315173
                                                         1.204000       0.000000
                                                         0.493000       0.000000
                          9       1    1fxy2             2.942000      37.315173
                                                         1.204000       0.000000
                                                         0.493000       0.000000
                          9       1    1fxyz             2.942000      64.631775
                                                         1.204000       0.000000
                                                         0.493000       0.000000
                          9       1    1fxz2             2.942000      37.315173
                                                         1.204000       0.000000
                                                         0.493000       0.000000
                          9       1    1fy3              2.942000      16.687853
                                                         1.204000       0.000000
                                                         0.493000       0.000000
                          9       1    1fy2z             2.942000      37.315173
                                                         1.204000       0.000000
                                                         0.493000       0.000000
                          9       1    1fyz2             2.942000      37.315173
                                                         1.204000       0.000000
                                                         0.493000       0.000000
                          9       1    1fz3              2.942000      16.687853
                                                         1.204000       0.000000
                                                         0.493000       0.000000

                          9       2    2fx3              2.942000       0.000000
                                                         1.204000       2.235445
                                                         0.493000       0.000000
                          9       2    2fx2y             2.942000       0.000000
                                                         1.204000       4.998608
                                                         0.493000       0.000000
                          9       2    2fx2z             2.942000       0.000000
                                                         1.204000       4.998608
                                                         0.493000       0.000000
                          9       2    2fxy2             2.942000       0.000000
                                                         1.204000       4.998608
                                                         0.493000       0.000000
                          9       2    2fxyz             2.942000       0.000000
                                                         1.204000       8.657842
                                                         0.493000       0.000000
                          9       2    2fxz2             2.942000       0.000000
                                                         1.204000       4.998608
                                                         0.493000       0.000000
                          9       2    2fy3              2.942000       0.000000
                                                         1.204000       2.235445
                                                         0.493000       0.000000
                          9       2    2fy2z             2.942000       0.000000
                                                         1.204000       4.998608
                                                         0.493000       0.000000
                          9       2    2fyz2             2.942000       0.000000
                                                         1.204000       4.998608
                                                         0.493000       0.000000
                          9       2    2fz3              2.942000       0.000000
                                                         1.204000       2.235445
                                                         0.493000       0.000000

                          9       3    3fx3              2.942000       0.000000
                                                         1.204000       0.000000
                                                         0.493000       0.299820
                          9       3    3fx2y             2.942000       0.000000
                                                         1.204000       0.000000
                                                         0.493000       0.670417
                          9       3    3fx2z             2.942000       0.000000
                                                         1.204000       0.000000
                                                         0.493000       0.670417
                          9       3    3fxy2             2.942000       0.000000
                                                         1.204000       0.000000
                                                         0.493000       0.670417
                          9       3    3fxyz             2.942000       0.000000
                                                         1.204000       0.000000
                                                         0.493000       1.161196
                          9       3    3fxz2             2.942000       0.000000
                                                         1.204000       0.000000
                                                         0.493000       0.670417
                          9       3    3fy3              2.942000       0.000000
                                                         1.204000       0.000000
                                                         0.493000       0.299820
                          9       3    3fy2z             2.942000       0.000000
                                                         1.204000       0.000000
                                                         0.493000       0.670417
                          9       3    3fyz2             2.942000       0.000000
                                                         1.204000       0.000000
                                                         0.493000       0.670417
                          9       3    3fz3              2.942000       0.000000
                                                         1.204000       0.000000
                                                         0.493000       0.299820

                         10       1    1hx5              0.788000       0.342022
                         10       1    1hx4y             0.788000       1.026067
                         10       1    1hx4z             0.788000       1.026067
                         10       1    1hx3y2            0.788000       1.567343
                         10       1    1hx3yz            0.788000       2.714718
                         10       1    1hx3z2            0.788000       1.567343
                         10       1    1hx2y3            0.788000       1.567343
                         10       1    1hx2y2z           0.788000       3.504685
                         10       1    1hx2yz2           0.788000       3.504685
                         10       1    1hx2z3            0.788000       1.567343
                         10       1    1hxy4             0.788000       1.026067
                         10       1    1hxy3z            0.788000       2.714718
                         10       1    1hxy2z2           0.788000       3.504685
                         10       1    1hxyz3            0.788000       2.714718
                         10       1    1hxz4             0.788000       1.026067
                         10       1    1hy5              0.788000       0.342022
                         10       1    1hy4z             0.788000       1.026067
                         10       1    1hy3z2            0.788000       1.567343
                         10       1    1hy2z3            0.788000       1.567343
                         10       1    1hyz4             0.788000       1.026067
                         10       1    1hz5              0.788000       0.342022

                         11       1    1gx4              2.511000      13.996321
                                                         0.942000       0.000000
                         11       1    1gx3y             2.511000      37.030784
                                                         0.942000       0.000000
                         11       1    1gx3z             2.511000      37.030784
                                                         0.942000       0.000000
                         11       1    1gx2y2            2.511000      47.806536
                                                         0.942000       0.000000
                         11       1    1gx2yz            2.511000      82.803350
                                                         0.942000       0.000000
                         11       1    1gx2z2            2.511000      47.806536
                                                         0.942000       0.000000
                         11       1    1gxy3             2.511000      37.030784
                                                         0.942000       0.000000
                         11       1    1gxy2z            2.511000      82.803350
                                                         0.942000       0.000000
                         11       1    1gxyz2            2.511000      82.803350
                                                         0.942000       0.000000
                         11       1    1gxz3             2.511000      37.030784
                                                         0.942000       0.000000
                         11       1    1gy4              2.511000      13.996321
                                                         0.942000       0.000000
                         11       1    1gy3z             2.511000      37.030784
                                                         0.942000       0.000000
                         11       1    1gy2z2            2.511000      47.806536
                                                         0.942000       0.000000
                         11       1    1gyz3             2.511000      37.030784
                                                         0.942000       0.000000
                         11       1    1gz4              2.511000      13.996321
                                                         0.942000       0.000000

                         11       2    2gx4              2.511000       0.000000
                                                         0.942000       0.944225
                         11       2    2gx3y             2.511000       0.000000
                                                         0.942000       2.498184
                         11       2    2gx3z             2.511000       0.000000
                                                         0.942000       2.498184
                         11       2    2gx2y2            2.511000       0.000000
                                                         0.942000       3.225142
                         11       2    2gx2yz            2.511000       0.000000
                                                         0.942000       5.586109
                         11       2    2gx2z2            2.511000       0.000000
                                                         0.942000       3.225142
                         11       2    2gxy3             2.511000       0.000000
                                                         0.942000       2.498184
                         11       2    2gxy2z            2.511000       0.000000
                                                         0.942000       5.586109
                         11       2    2gxyz2            2.511000       0.000000
                                                         0.942000       5.586109
                         11       2    2gxz3             2.511000       0.000000
                                                         0.942000       2.498184
                         11       2    2gy4              2.511000       0.000000
                                                         0.942000       0.944225
                         11       2    2gy3z             2.511000       0.000000
                                                         0.942000       2.498184
                         11       2    2gy2z2            2.511000       0.000000
                                                         0.942000       3.225142
                         11       2    2gyz3             2.511000       0.000000
                                                         0.942000       2.498184
                         11       2    2gz4              2.511000       0.000000
                                                         0.942000       0.944225

                         12       1    1hx5              1.768000       4.727826
                         12       1    1hx4y             1.768000      14.183479
                         12       1    1hx4z             1.768000      14.183479
                         12       1    1hx3y2            1.768000      21.665622
                         12       1    1hx3yz            1.768000      37.525958
                         12       1    1hx3z2            1.768000      21.665622
                         12       1    1hx2y3            1.768000      21.665622
                         12       1    1hx2y2z           1.768000      48.445803
                         12       1    1hx2yz2           1.768000      48.445803
                         12       1    1hx2z3            1.768000      21.665622
                         12       1    1hxy4             1.768000      14.183479
                         12       1    1hxy3z            1.768000      37.525958
                         12       1    1hxy2z2           1.768000      48.445803
                         12       1    1hxyz3            1.768000      37.525958
                         12       1    1hxz4             1.768000      14.183479
                         12       1    1hy5              1.768000       4.727826
                         12       1    1hy4z             1.768000      14.183479
                         12       1    1hy3z2            1.768000      21.665622
                         12       1    1hy2z3            1.768000      21.665622
                         12       1    1hyz4             1.768000      14.183479
                         12       1    1hz5              1.768000       4.727826

     RI Auxiliary Basis Set                                    aug-cc-pV5Z-OPTRI

       Number of orbital shell sets:                                          22
       Number of orbital shells:                                              22
       Number of primitive Cartesian functions:                               22
       Number of Cartesian basis functions:                                  188
       Number of spherical basis functions:                                  122
       Norm type:                                                              2

       Normalised Cartesian orbitals:

                        Set   Shell   Orbital            Exponent    Coefficient

                          1       1    1gx4              0.134828       0.004501
                          1       1    1gx3y             0.134828       0.011909
                          1       1    1gx3z             0.134828       0.011909
                          1       1    1gx2y2            0.134828       0.015375
                          1       1    1gx2yz            0.134828       0.026630
                          1       1    1gx2z2            0.134828       0.015375
                          1       1    1gxy3             0.134828       0.011909
                          1       1    1gxy2z            0.134828       0.026630
                          1       1    1gxyz2            0.134828       0.026630
                          1       1    1gxz3             0.134828       0.011909
                          1       1    1gy4              0.134828       0.004501
                          1       1    1gy3z             0.134828       0.011909
                          1       1    1gy2z2            0.134828       0.015375
                          1       1    1gyz3             0.134828       0.011909
                          1       1    1gz4              0.134828       0.004501

                          2       1    1px               0.159639       0.143835
                          2       1    1py               0.159639       0.143835
                          2       1    1pz               0.159639       0.143835

                          3       1    1s                0.209162       0.220431

                          4       1    1px               0.436875       0.506275
                          4       1    1py               0.436875       0.506275
                          4       1    1pz               0.436875       0.506275

                          5       1    1hx5              0.527568       0.092843
                          5       1    1hx4y             0.527568       0.278529
                          5       1    1hx4z             0.527568       0.278529
                          5       1    1hx3y2            0.527568       0.425460
                          5       1    1hx3yz            0.527568       0.736918
                          5       1    1hx3z2            0.527568       0.425460
                          5       1    1hx2y3            0.527568       0.425460
                          5       1    1hx2y2z           0.527568       0.951358
                          5       1    1hx2yz2           0.527568       0.951358
                          5       1    1hx2z3            0.527568       0.425460
                          5       1    1hxy4             0.527568       0.278529
                          5       1    1hxy3z            0.527568       0.736918
                          5       1    1hxy2z2           0.527568       0.951358
                          5       1    1hxyz3            0.527568       0.736918
                          5       1    1hxz4             0.527568       0.278529
                          5       1    1hy5              0.527568       0.092843
                          5       1    1hy4z             0.527568       0.278529
                          5       1    1hy3z2            0.527568       0.425460
                          5       1    1hy2z3            0.527568       0.425460
                          5       1    1hyz4             0.527568       0.278529
                          5       1    1hz5              0.527568       0.092843

                          6       1    1s                0.530900       0.443271

                          7       1    1fx3              0.738473       0.744230
                          7       1    1fx2y             0.738473       1.664150
                          7       1    1fx2z             0.738473       1.664150
                          7       1    1fxy2             0.738473       1.664150
                          7       1    1fxyz             0.738473       2.882392
                          7       1    1fxz2             0.738473       1.664150
                          7       1    1fy3              0.738473       0.744230
                          7       1    1fy2z             0.738473       1.664150
                          7       1    1fyz2             0.738473       1.664150
                          7       1    1fz3              0.738473       0.744230

                          8       1    1px               1.004026       1.432588
                          8       1    1py               1.004026       1.432588
                          8       1    1pz               1.004026       1.432588

                          9       1    1dx2              1.119820       2.006406
                          9       1    1dxy              1.119820       3.475197
                          9       1    1dxz              1.119820       3.475197
                          9       1    1dy2              1.119820       2.006406
                          9       1    1dyz              1.119820       3.475197
                          9       1    1dz2              1.119820       2.006406

                         10       1    1s                1.393963       0.914321

                         11       1    1gx4              1.404119       2.830064
                         11       1    1gx3y             1.404119       7.487644
                         11       1    1gx3z             1.404119       7.487644
                         11       1    1gx2y2            1.404119       9.666507
                         11       1    1gx2yz            1.404119      16.742882
                         11       1    1gx2z2            1.404119       9.666507
                         11       1    1gxy3             1.404119       7.487644
                         11       1    1gxy2z            1.404119      16.742882
                         11       1    1gxyz2            1.404119      16.742882
                         11       1    1gxz3             1.404119       7.487644
                         11       1    1gy4              1.404119       2.830064
                         11       1    1gy3z             1.404119       7.487644
                         11       1    1gy2z2            1.404119       9.666507
                         11       1    1gyz3             1.404119       7.487644
                         11       1    1gz4              1.404119       2.830064

                         12       1    1fx3              1.802390       5.541332
                         12       1    1fx2y             1.802390      12.390795
                         12       1    1fx2z             1.802390      12.390795
                         12       1    1fxy2             1.802390      12.390795
                         12       1    1fxyz             1.802390      21.461487
                         12       1    1fxz2             1.802390      12.390795
                         12       1    1fy3              1.802390       5.541332
                         12       1    1fy2z             1.802390      12.390795
                         12       1    1fyz2             1.802390      12.390795
                         12       1    1fz3              1.802390       5.541332

                         13       1    1ix6              1.941471       5.384789
                         13       1    1ix5y             1.941471      17.859326
                         13       1    1ix5z             1.941471      17.859326
                         13       1    1ix4y2            1.941471      30.933260
                         13       1    1ix4yz            1.941471      53.577978
                         13       1    1ix4z2            1.941471      30.933260
                         13       1    1ix3y3            1.941471      36.600727
                         13       1    1ix3y2z           1.941471      81.841714
                         13       1    1ix3yz2           1.941471      81.841714
                         13       1    1ix3z3            1.941471      36.600727
                         13       1    1ix2y4            1.941471      30.933260
                         13       1    1ix2y3z           1.941471      81.841714
                         13       1    1ix2y2z2          1.941471     105.657198
                         13       1    1ix2yz3           1.941471      81.841714
                         13       1    1ix2z4            1.941471      30.933260
                         13       1    1ixy5             1.941471      17.859326
                         13       1    1ixy4z            1.941471      53.577978
                         13       1    1ixy3z2           1.941471      81.841714
                         13       1    1ixy2z3           1.941471      81.841714
                         13       1    1ixyz4            1.941471      53.577978
                         13       1    1ixz5             1.941471      17.859326
                         13       1    1iy6              1.941471       5.384789
                         13       1    1iy5z             1.941471      17.859326
                         13       1    1iy4z2            1.941471      30.933260
                         13       1    1iy3z3            1.941471      36.600727
                         13       1    1iy2z4            1.941471      30.933260
                         13       1    1iyz5             1.941471      17.859326
                         13       1    1iz6              1.941471       5.384789

                         14       1    1px               2.643998       4.805809
                         14       1    1py               2.643998       4.805809
                         14       1    1pz               2.643998       4.805809

                         15       1    1dx2              3.091394      11.862592
                         15       1    1dxy              3.091394      20.546612
                         15       1    1dxz              3.091394      20.546612
                         15       1    1dy2              3.091394      11.862592
                         15       1    1dyz              3.091394      20.546612
                         15       1    1dz2              3.091394      11.862592

                         16       1    1hx5              3.455251      41.725627
                         16       1    1hx4y             3.455251     125.176881
                         16       1    1hx4z             3.455251     125.176881
                         16       1    1hx3y2            3.455251     191.210844
                         16       1    1hx3yz            3.455251     331.186896
                         16       1    1hx3z2            3.455251     191.210844
                         16       1    1hx2y3            3.455251     191.210844
                         16       1    1hx2y2z           3.455251     427.560445
                         16       1    1hx2yz2           3.455251     427.560445
                         16       1    1hx2z3            3.455251     191.210844
                         16       1    1hxy4             3.455251     125.176881
                         16       1    1hxy3z            3.455251     331.186896
                         16       1    1hxy2z2           3.455251     427.560445
                         16       1    1hxyz3            3.455251     331.186896
                         16       1    1hxz4             3.455251     125.176881
                         16       1    1hy5              3.455251      41.725627
                         16       1    1hy4z             3.455251     125.176881
                         16       1    1hy3z2            3.455251     191.210844
                         16       1    1hy2z3            3.455251     191.210844
                         16       1    1hyz4             3.455251     125.176881
                         16       1    1hz5              3.455251      41.725627

                         17       1    1gx4              5.019491      94.026343
                         17       1    1gx3y             5.019491     248.770320
                         17       1    1gx3z             5.019491     248.770320
                         17       1    1gx2y2            5.019491     321.161102
                         17       1    1gx2yz            5.019491     556.267347
                         17       1    1gx2z2            5.019491     321.161102
                         17       1    1gxy3             5.019491     248.770320
                         17       1    1gxy2z            5.019491     556.267347
                         17       1    1gxyz2            5.019491     556.267347
                         17       1    1gxz3             5.019491     248.770320
                         17       1    1gy4              5.019491      94.026343
                         17       1    1gy3z             5.019491     248.770320
                         17       1    1gy2z2            5.019491     321.161102
                         17       1    1gyz3             5.019491     248.770320
                         17       1    1gz4              5.019491      94.026343

                         18       1    1s                6.323282       2.841954

                         19       1    1px               6.613928      15.118699
                         19       1    1py               6.613928      15.118699
                         19       1    1pz               6.613928      15.118699

                         20       1    1dx2              6.959399      49.080615
                         20       1    1dxy              6.959399      85.010119
                         20       1    1dxz              6.959399      85.010119
                         20       1    1dy2              6.959399      49.080615
                         20       1    1dyz              6.959399      85.010119
                         20       1    1dz2              6.959399      49.080615

                         21       1    1fx3              7.060014     119.609855
                         21       1    1fx2y             7.060014     267.455767
                         21       1    1fx2z             7.060014     267.455767
                         21       1    1fxy2             7.060014     267.455767
                         21       1    1fxyz             7.060014     463.246977
                         21       1    1fxz2             7.060014     267.455767
                         21       1    1fy3              7.060014     119.609855
                         21       1    1fy2z             7.060014     267.455767
                         21       1    1fyz2             7.060014     267.455767
                         21       1    1fz3              7.060014     119.609855

                         22       1    1dx2             13.517160     156.840783
                         22       1    1dxy             13.517160     271.656205
                         22       1    1dxz             13.517160     271.656205
                         22       1    1dy2             13.517160     156.840783
                         22       1    1dyz             13.517160     271.656205
                         22       1    1dz2             13.517160     156.840783

       Atomic covalent radius [Angstrom]:                                  0.750

       Atomic van der Waals radius [Angstrom]:                             1.550

     The atoms of this atomic kind are PAW atoms (GAPW):
       Hard Gaussian function radius:                                      1.512
       Rho0 radius:                                                        1.512
       Maximum GTO radius used for PAW projector construction:            24.566

     GAPW Soft Basis Set                                        aug-cc-pV5Z_soft

       Number of orbital shell sets:                                          12
       Number of orbital shells:                                              27
       Number of primitive Cartesian functions:                               24
       Number of Cartesian basis functions:                                  182
       Number of spherical basis functions:                                  127
       Norm type:                                                              2

       Normalised Cartesian orbitals:

                        Set   Shell   Orbital            Exponent    Coefficient

                          1       1    1px               0.036900       0.023053
                          1       1    1py               0.036900       0.023053
                          1       1    1pz               0.036900       0.023053

                          2       1    1s                0.051800       0.077385

                          3       1    1dx2              0.097100       0.027800
                          3       1    1dxy              0.097100       0.048151
                          3       1    1dxz              0.097100       0.048151
                          3       1    1dy2              0.097100       0.027800
                          3       1    1dyz              0.097100       0.048151
                          3       1    1dz2              0.097100       0.027800

                          4       1    1px               3.995000       0.000000
                                                         1.587000       2.538991
                                                         0.653300       0.000000
                                                         0.268600       0.000000
                                                         0.106700       0.000000
                          4       1    1py               3.995000       0.000000
                                                         1.587000       2.538991
                                                         0.653300       0.000000
                                                         0.268600       0.000000
                                                         0.106700       0.000000
                          4       1    1pz               3.995000       0.000000
                                                         1.587000       2.538991
                                                         0.653300       0.000000
                                                         0.268600       0.000000
                                                         0.106700       0.000000

                          4       2    2px               3.995000       0.000000
                                                         1.587000       0.000000
                                                         0.653300       0.837203
                                                         0.268600       0.000000
                                                         0.106700       0.000000
                          4       2    2py               3.995000       0.000000
                                                         1.587000       0.000000
                                                         0.653300       0.837203
                                                         0.268600       0.000000
                                                         0.106700       0.000000
                          4       2    2pz               3.995000       0.000000
                                                         1.587000       0.000000
                                                         0.653300       0.837203
                                                         0.268600       0.000000
                                                         0.106700       0.000000

                          4       3    3px               3.995000       0.871164
                                                         1.587000       0.629909
                                                         0.653300       0.313544
                                                         0.268600       0.096033
                                                         0.106700       0.011156
                          4       3    3py               3.995000       0.871164
                                                         1.587000       0.629909
                                                         0.653300       0.313544
                                                         0.268600       0.096033
                                                         0.106700       0.011156
[...]
 Robust Periodic Hartree-Fock Exchange for Large-Scale Simulations Using 
 Gaussian Basis Sets.
 https://doi.org/10.1021/ct900494g

 M. Guidon, F. Schiffmann, J. Hutter, J. VandeVondele.
 J. Chem. Phys. 128, 214104 (2008).
 Ab initio molecular dynamics using hybrid density functionals.
 https://doi.org/10.1063/1.2931945

 L. Genovese, T. Deutsch, S. Goedecker.
 J. Chem. Phys. 127, 054704 (2007).
 Efficient and accurate three-dimensional Poisson solver for surface problems.
 https://doi.org/10.1063/1.2754685

 J. VandeVondele, J. Hutter.
 J. Chem. Phys. 127, 114105 (2007).
 Gaussian basis sets for accurate calculations on molecular systems in gas and 
 condensed phases.
 https://doi.org/10.1063/1.2770708

 L. Genovese, T. Deutsch, A. Neelov, S. Goedecker, G. Beylkin.
 J. Chem. Phys. 125, 074105 (2006).
 Efficient solution of Poisson's equation with free boundary conditions.
 https://doi.org/10.1063/1.2335442

 M. Iannuzzi, T. Chassaing, T. Wallman, J. Hutter.
 CHIMIA 59, 499-503 (2005).
 Ground and excited state density functional calculations with the Gaussian and 
 augmented-plane-wave method.
 https://doi.org/10.2533/000942905777676164

 M. Frigo, S. G. Johnson.
 Proc. IEEE 93, 216-231 (2005).
 The design and implementation of FFTW3.
 https://doi.org/10.1109/JPROC.2004.840301

 R. L. Martin.
 J. Chem. Phys. 118, 4775-4777 (2003).
 Natural transition orbitals.
 https://doi.org/10.1063/1.1558471

 M. Krack, M. Parrinello.
 Phys. Chem. Chem. Phys. 2, 2105-2112 (2000).
 All-electron ab-initio molecular dynamics.
 https://doi.org/10.1039/b001167n

 G. Lippert, J. Hutter, M. Parrinello.
 Theor. Chem. Acc. 103, 124-140 (1999).
 The Gaussian and augmented-plane-wave density functional method for ab initio 
 molecular dynamics simulations.
 https://doi.org/10.1007/s002140050523

 J. P. Perdew, K. Burke, M. Ernzerhof.
 Phys. Rev. Lett. 77, 3865-3868 (1996).
 Generalized gradient approximation made simple.
 https://doi.org/10.1103/PhysRevLett.77.3865


 -------------------------------------------------------------------------------
 -                                                                             -
 -                                T I M I N G                                  -
 -                                                                             -
 -------------------------------------------------------------------------------
 SUBROUTINE                       CALLS  ASD         SELF TIME        TOTAL TIME
                                MAXIMUM       AVERAGE  MAXIMUM  AVERAGE  MAXIMUM
 CP2K                                 1  1.0    0.231    0.329 2145.103 2145.103
 qs_energies                          1  2.0    0.000    0.001 2142.354 2142.355
 integrate_four_center              439  9.8   27.837   39.232 1534.040 1535.935
 qs_energies_properties               1  3.0    0.000    0.000 1106.247 1106.248
 tddfpt                               1  4.0    0.000    0.001 1106.247 1106.248
 tddfpt_energies                      1  5.0    0.000    0.000 1105.603 1105.603
 tddfpt_davidson_solver               1  6.0    0.001    0.003 1092.177 1092.177
 tddfpt_compute_Aop_evects            9  7.0    0.000    0.000 1083.563 1083.564
 integrate_four_center_main         439 10.8   48.524  167.226  825.839 1035.139
 scf_env_do_scf                       1  3.0    0.000    0.000 1028.562 1028.679
 scf_env_do_scf_inner_loop           79  4.0    0.002    0.006 1028.562 1028.679
 integrate_four_center_bin       158337 11.9  777.314 1014.422  777.314 1014.422
 qs_ks_update_qs_env                 79  5.0    0.001    0.001  966.272  966.822
 rebuild_ks_matrix                   79  6.0    0.000    0.000  966.254  966.804
 qs_ks_build_kohn_sham_matrix        79  7.0    0.011    0.012  966.254  966.804
 hfx_ks_matrix                       79  8.0    0.003    0.004  837.546  837.832
 tddfpt_apply_hfx                     9  8.0    0.005    0.005  712.753  712.754
 tddft_hfx_matrix                   360  9.0    0.012    0.013  696.514  698.132
 mp_sync                           5453 13.4  427.971  562.784  427.971  562.784
 fhxc_kernel                          9  8.0    0.007    0.009  366.242  366.242
 calc_screening_functions             1 10.0  141.100  146.062  151.932  156.804
 prepare_gapw_den                   260  8.7    0.009    0.012  151.306  151.417
 tddfpt_apply_coulomb               180  9.0    0.003    0.003  125.760  126.597
 calculate_rho_atom                1040  9.7   19.679  121.784   19.679  121.785
 mp_waitall_1                   1050822 12.9   88.578  120.728   88.578  120.728
 mp_sum_dv                        47152  8.8  106.699  109.984  106.699  109.984
 pw_poisson_solve                   259  9.4    0.848    0.994   97.271   98.103
 gaVxcgb_GC                         777  9.7    1.064   97.688    1.064   97.688
 fft_wrap_pw1pw2                   5273 11.0    0.054    0.065   95.198   96.491
 fft_wrap_pw1pw2_250               3713 12.1    0.764    0.827   91.844   93.182
 qs_rho_update_rho_low              261  7.8    0.003    0.004   91.952   91.983
 fft3d_pb                          3713 13.1    2.667    3.018   90.079   91.434
 mp_alltoall_z22v                  8986 15.1   87.329   89.022   87.329   89.022
 mp_alltoall_d11v                 16056 11.6   78.410   82.017   78.410   82.017
 integrate_v_rspace                 259  9.0    0.007    0.008   79.679   80.179
 cube_transpose_1                  2673 13.8    0.178    0.234   73.820   79.661
 cube_transpose_3                  1896 13.7    0.181    0.241    7.015   78.025
 calculate_xc_2nd_deriv_atom        180  9.0    0.096    6.290    0.858   74.752
 calculate_rho_elec                 261  8.8    0.243    0.258   68.502   68.535
 rs_gather_matrices                 259 10.0    0.045    0.190   61.490   63.848
 grid_integrate_task_list           259 10.0    2.234   61.546    2.234   61.546
 density_rs2pw                      261  9.8    0.012    0.014   51.423   56.461
 transfer_rs2pw                    1305 10.7    0.024    0.034   49.030   53.948
 mp_sum_dm                        13389 10.0   52.427   53.295   52.427   53.295
 integrate_four_center_dist_KS      439 10.8    1.352    1.467   49.849   49.896
 grid_collocate_task_list           261  9.8   13.715   46.013   13.715   46.013
 mp_sum_d                         17673  7.2   42.766   45.578   42.766   45.578
 mp_waitany                       24974 12.8   30.418   42.905   30.418   42.905
 integrate_four_center_getP         439 10.8    1.944    2.060   41.945   42.181
 integrate_vhg0_rspace              259  9.4    9.703   10.561   41.704   41.805
 transfer_rs2pw_250                 522 11.7    0.908    1.126   29.258   40.798
 mp_isendrecv_dv                 713356 12.3   12.148   37.671   12.148   37.671
 cp_fm_syevd                        131  7.2    0.001    0.002   35.285   35.315
 cp_fm_redistribute_end             131  8.2   17.609   34.980   17.655   35.001
 cp_fm_syevd_base                   131  8.2   17.305   34.669   17.305   34.669
 qs_scf_new_mos                      79  5.0    0.001    0.001   32.250   32.390
 cp_dbcsr_sm_fm_multiply           1126  8.6    0.030    0.034   29.855   31.975
 calculate_vxc_atom                  79  8.0    0.061    1.405   31.223   31.224
 transfer_rs2pw_90                  261 11.8    0.253    0.301    8.133   31.027
 eigensolver_symm                    79  6.0    0.004    0.005   29.405   29.426
 calculate_rho0_atom               1040  9.7   22.829   25.339   22.829   25.339
 dbcsr_complete_redistribute       3776 10.5    0.255    0.478   22.984   25.099
 sum_up_and_integrate                79  8.0    0.001    0.001   24.568   24.995
 calculate_rho_atom_coeff           261  8.8    0.793    1.838   23.447   23.449
 powell_optimize                7093442 11.0   17.691   19.604   17.691   19.604
 copy_fm_to_dbcsr                  2545  9.5    0.015    0.016   16.568   18.687
 potential_pw2rs                    259 10.0    0.019    0.021   15.948   16.395
 ps_wavelet_solve                   259 10.4   10.451   12.823   15.869   16.195
 transfer_pw2rs                    1296 10.9    0.014    0.018   14.889   15.539
 copy_dbcsr_to_fm                  1229  9.3    0.028    0.031   13.949   15.001
 mp_alltoall_d54                    259 11.4    3.547   12.211    3.547   12.211
 tddfpt_print_nto_analysis            1  6.0    0.003    0.003   11.914   11.915
 calc_pair_dist_radii                 1 10.0    2.954    3.030    9.814   10.769
 mp_alltoall_i11v                 12558 11.4   10.592   10.612   10.592   10.612
 cp_fm_geeig                         20  7.0    0.001    0.001   10.386   10.391
 transfer_rs2pw_30                  261 11.8    2.986    3.490    8.390    9.436
 Vh_1c_gg_integrals                 259  9.4    0.149    8.727    8.779    8.810
 mp_alltoall_i22                   5006 11.4    6.247    8.723    6.247    8.723
 dbcsr_multiply_generic            1565 10.3    0.080    0.091    7.465    8.603
 dbcsr_desymmetrize_deep           1230 10.3    0.038    0.061    7.388    8.437
 mp_sum_l                          6005 10.6    5.433    8.191    5.433    8.191
 mp_sendrecv_dv                  266742 12.8    7.847    8.182    7.847    8.182
 integrate_four_center_load         439 10.8    0.002    0.002    5.214    7.965
 hfx_load_balance                     1 11.0    0.000    0.000    5.212    7.963
 hfx_load_balance_range               1 12.0    0.000    0.003    4.982    7.732
 xc_pw_derive                      1557 11.0    0.006    0.007    7.332    7.434
 cp_dbcsr_sm_fm_multiply_core      1126  9.6    0.004    0.005    5.656    6.714
 qs_energies_init_hamiltonians        1  3.0    0.000    0.000    6.581    6.581
 build_core_hamiltonian_matrix        1  4.0    0.000    0.000    6.548    6.548
 overlap_condnum                      1  5.0    0.000    0.001    6.500    6.539
 transfer_pw2rs_30                  259 12.0    2.695    2.964    6.244    6.477
 multiply_cannon                   1565 11.3    0.242    0.252    4.922    6.075
 tddfpt_apply_xc_analytic           180  9.0    0.016    0.021    5.951    6.010
 arnoldi_conjugate_gradient           5  6.0    0.068    0.085    5.870    5.870
 multiply_cannon_loop              1565 12.3    0.444    0.550    4.245    5.355
 transfer_pw2rs_250                 519 11.7    0.803    0.879    4.350    5.195
 parallel_gemm_fm                  1666  8.3    0.003    0.003    4.913    4.971
 parallel_gemm_fm_gemm             1666  9.3    0.003    0.003    4.910    4.968
 cp_fm_gemm                        1666 10.3    4.908    4.965    4.908    4.965
 xc_pw_divergence                   259 10.7    0.003    0.004    4.828    4.931
 tddfpt_orthonormalize_psi1_psi      10  6.9    0.024    0.027    4.893    4.894
 cube_transpose_2                  2600 14.3    0.156    0.187    3.779    4.616
 tddfpt_apply_energy_diff             9  8.0    0.001    0.001    4.568    4.568
 cp_dbcsr_plus_fm_fm_t              259  8.4    0.005    0.005    4.452    4.563
 update_ks_atom                     259  8.7    0.663    2.532    2.813    4.558
 put_rho0_on_grid                   260  9.7    0.286    0.429    4.233    4.345
 multiply_cannon_metrocomm3       50080 13.3    0.156    0.161    1.778    3.983
 transfer_rs2pw_10                  261 11.8    0.783    0.889    3.226    3.896
 cube_transpose_4                  1817 14.6    0.167    0.204    3.403    3.843
 tddfpt_compute_residual_vects        8  7.0    0.001    0.001    3.656    3.656
 dbcsr_sym_matrix_vector_mult     10015  7.0    0.160    0.175    3.111    3.548
 xc_calc_2nd_deriv_analytical      1260 10.1    0.110    0.208    3.403    3.521
 fft3d_ps                          1560 12.9    0.175    0.291    3.214    3.442
 hybrid_alltoall_any               4360 13.5    0.055    0.115    3.167    3.347
 qs_vxc_create                       79  8.0    0.001    0.001    3.160    3.162
 xc_vxc_pw_create                    79  9.0    0.081    0.085    3.159    3.160
 rs_scatter_matrices                261  9.8    0.007    0.019    2.921    3.078
 multiply_cannon_metrocomm1       50080 13.3    0.084    0.088    1.029    3.032
 mp_isend_dm3                     12486 12.8    0.781    2.781    0.781    2.781
 mp_alltoall_d45                    260 11.4    1.871    2.704    1.871    2.704
 transfer_pw2rs_10                  259 12.0    0.769    0.795    2.360    2.479
 transfer_pw2rs_90                  259 12.0    0.211    0.232    1.921    2.445
 dbcsr_add_d                      15084  7.0    0.014    0.016    0.240    2.360
 dbcsr_add_anytype                15084  8.0    0.017    0.175    0.226    2.344
 mp_bcast_dm                       8806  9.7    2.150    2.202    2.150    2.202
 mp_irecv_dm3                     12486 12.8    0.468    2.092    0.468    2.092
 gspace_mixing                       78  5.0    0.072    0.077    2.078    2.078
 make_m2s                          3130 11.3    0.064    0.071    1.753    1.966
 dbcsr_rep_row_to_rep_col_vec     10015  8.0    0.057    0.076    0.861    1.853
 fft_wrap_pw1pw2_90                 520 11.9    0.028    0.077    1.617    1.808
 make_images                       3130 12.3    0.582    0.707    1.584    1.775
 dbcsr_finalize                   22412 11.3    0.065    0.527    0.417    1.759
 create_qs_kind_set                   1  2.0    0.000    0.000    1.698    1.698
 read_qs_kind                         4  3.0    0.880    0.922    1.697    1.698
 cp2k_distribution_to_z_slices      259 10.4    0.511    0.550    1.586    1.648
 broyden_mixing                      78  6.0    1.446    1.572    1.607    1.641
 multiply_cannon_metrocomm4       48515 13.3    0.147    0.164    0.415    1.602
 xc_rho_set_and_dset_create          80 10.0    0.039    0.041    1.474    1.572
 calculate_dm_sparse                 79  6.0    0.001    0.001    1.422    1.505
 mp_irecv_dv                     111568 14.1    0.190    1.386    0.190    1.386
 dbcsr_col_vec_to_rep_row         10015  8.0    0.073    0.095    0.971    1.352
 cp_fm_triangular_multiply           60  8.0    1.300    1.305    1.300    1.305
 multiply_cannon_multrec          50080 13.3    0.300    1.255    0.308    1.264
 yz_to_xz                           777 14.0    0.113    0.174    0.979    1.140
 cp_fm_symm                          79  7.0    1.092    1.117    1.092    1.117
 mp_bcast_dv                      10146  9.0    0.603    1.076    0.603    1.076
 fft_wrap_pw1pw2_30                 520 11.9    0.007    0.043    1.016    1.056
 cp_fm_triangular_invert             20  8.0    1.016    1.018    1.016    1.018
 cp_fm_cholesky_decompose            21  8.0    0.957    0.958    0.957    0.958
 tddfpt_construct_ground_state_       1  6.0    0.000    0.000    0.957    0.958
 xz_to_yz                           783 13.8    0.054    0.113    0.773    0.897
 dbcsr_merge_all                  20663 12.3    0.166    0.679    0.236    0.880
 parser_read_line                187305  4.0    0.063    0.068    0.817    0.826
 mp_rank_compare                   1560 13.9    0.653    0.818    0.653    0.818
 init_scf_run                         1  3.0    0.000    0.000    0.806    0.806
 rs_grid_zero                      1298 11.9    0.736    0.799    0.736    0.799
 mp_isend_dv                     113774 14.1    0.236    0.775    0.236    0.775
 dbcsr_sym_matrix_vector_mult_l   10015  8.0    0.154    0.656    0.269    0.769
 parser_read_line_low               207  5.0    0.060    0.389    0.755    0.766
 cp_fm_trace_a1b1t1_aa            16500  8.0    0.101    0.118    0.757    0.763
 dbcsr_iterator_start            142428  9.4    0.348    0.616    0.383    0.761
 broadcast_input_information        207  6.0    0.144    0.158    0.695    0.728
 fft_wrap_pw1pw2_10                 520 11.9    0.003    0.026    0.666    0.676
 make_images_sizes                 3130 13.3    0.004    0.004    0.626    0.662
 mp_alltoall_i44                   3130 14.3    0.622    0.658    0.622    0.658
 pw_scatter_p                      2673 12.8    0.487    0.609    0.487    0.609
 qs_init_subsys                       1  2.0    0.011    0.014    0.574    0.574
 pw_integral_ab_c1d_c1d_gs          259 10.4    0.332    0.352    0.473    0.536
 pw_poisson_rebuild                 259 10.4    0.000    0.000    0.513    0.518
 ps_wavelet_create                    1 10.0    0.000    0.000    0.513    0.518
 RS_z_slice_distribution              1 11.0    0.422    0.499    0.513    0.518
 mp_cart_sub                       2465 11.3    0.502    0.505    0.502    0.505
 cp_fm_redistribute_start           131  8.2    0.254    0.373    0.324    0.478
 multiply_cannon_metrocomm2       46950 13.3    0.142    0.153    0.272    0.473
 xc_functional_eval                1634 10.9    0.001    0.006    0.278    0.470
 pbe_lda_eval                      1634 11.9    0.277    0.463    0.277    0.463
 pw_gather_p                       2600 13.3    0.360    0.458    0.360    0.458
 mp_allgather_i34                  1565 12.3    0.334    0.449    0.334    0.449
 qs_env_setup                         1  3.0    0.000    0.000    0.422    0.438
 qs_env_rebuild_pw_env                2  3.5    0.000    0.000    0.421    0.437
 pw_env_rebuild                       1  5.0    0.000    0.001    0.421    0.436
 mp_bcast_i_src                     828  7.0    0.244    0.431    0.244    0.431
 make_images_data                  3130 13.3    0.061    0.074    0.207    0.426
 scf_env_initial_rho_setup            1  4.0    0.000    0.000    0.425    0.425
 dbcsr_copy                       43894  7.8    0.228    0.291    0.340    0.416
 cp_fm_power                          1  6.0    0.002    0.002    0.408    0.409
 tddfpt_init_mos                      1  5.0    0.000    0.000    0.403    0.403
 tddfpt_init_ground_state_mos         1  6.0    0.000    0.000    0.403    0.403
 mp_max_i                           734  5.1    0.317    0.390    0.317    0.390
 cp_fm_write_unformatted             24  7.0    0.041    0.358    0.051    0.387
 dbcsr_iterator_stop             142428  9.4    0.211    0.351    0.238    0.385
 dbcsr_work_create                26588 12.2    0.085    0.248    0.132    0.384
 xc_2nd_deriv_of_r                 1080 10.0    0.001    0.102    0.004    0.379
 eigensolver                          1  7.0    0.000    0.000    0.366    0.366
 mp_bcast_am_src                    207  7.0    0.269    0.335    0.292    0.364
 mp_cart_create                    2270 10.6    0.334    0.360    0.336    0.361
 write_mo_set_to_restart             79  5.0    0.001    0.008    0.023    0.361
 write_mo_set_low                     4  6.0    0.000    0.001    0.022    0.358
 mp_send_dv                          24  8.0    0.010    0.343    0.010    0.343
 mp_isend_zv                      54948 14.9    0.075    0.339    0.075    0.339
 dbcsr_work_destroy_all           26588 13.1    0.075    0.226    0.111    0.325
 dbcsr_create_new                 65196  9.8    0.210    0.232    0.267    0.291
 tddfpt_compute_ritz_vects            9  7.0    0.004    0.005    0.235    0.235
 dbcsr_data_new                  345189 12.1    0.125    0.226    0.125    0.226
 compute_max_radius                   1  6.0    0.208    0.218    0.208    0.218
 dbcsr_scale_anytype              15086  9.0    0.034    0.043    0.169    0.217
 -------------------------------------------------------------------------------

 The number of warnings for this run is : 2
 
 -------------------------------------------------------------------------------
  **** **** ******  **  PROGRAM ENDED AT                 2025-04-15 00:06:32.724
 ***** ** ***  *** **   PROGRAM RAN ON                              i01r09c05s12
 **    ****   ******    PROGRAM RAN BY                                   di38fab
 ***** **    ** ** **   PROGRAM PROCESS ID                                933995
  **** **  *******  **  PROGRAM STOPPED IN /hppfs/scratch/04/di38fab/05_MOL/aUKB
                                           qsEOTmq69kFe5R_nOg/5k_set_final_qzvp/
                                           MNPYDO01/aug-cc-pV5Z/TDDFT
