 DBCSR| CPU Multiplication driver                                           XSMM (U)
 DBCSR| Multrec recursion limit                                              512 (U)
 DBCSR| Multiplication stack size                                           1000 (D)
 DBCSR| Maximum elements for images                                    UNLIMITED (U)
 DBCSR| Multiplicative factor virtual images                                   1 (U)
 DBCSR| Use multiplication densification                                       T (D)
 DBCSR| Multiplication size stacks                                             3 (U)
 DBCSR| Use memory pool for CPU allocation                                     F (U)
 DBCSR| Number of 3D layers                                               SINGLE (U)
 DBCSR| Use MPI memory allocation                                              F (U)
 DBCSR| Use RMA algorithm                                                      F (U)
 DBCSR| Use Communication thread                                               T (U)
 DBCSR| Communication thread load                                             60 (D)
 DBCSR| MPI: My process id                                                     0
 DBCSR| MPI: Number of processes                                              80
 DBCSR| OMP: Current number of threads                                         8
 DBCSR| OMP: Max number of threads                                             8
 DBCSR| Split modifier for TAS multiplication algorithm                  1.0E+00 (U)


  **** **** ******  **  PROGRAM STARTED AT               2025-05-29 05:38:08.490
 ***** ** ***  *** **   PROGRAM STARTED ON                              n2cn0183
 **    ****   ******    PROGRAM STARTED BY                              metdyn02
 ***** **    ** ** **   PROGRAM PROCESS ID                               1665730
  **** **  *******  **  PROGRAM STARTED IN /scratch/hpc-prf-metdyn/metdyn02_Remi
                                           /10_MOL/05_MOL_low_scal/05_MOL/aUKBqs
                                           EOTmq69kFe5R_nOg/5k_set_final_qzvp/AB
                                           EGEU/SZV/1e-5/3.0

 CP2K| version string:                 CP2K version 2025.1 (Development Version)
 CP2K| source code revision number:                                  git:32ddf85
 CP2K| cp2kflags: omp libint fftw3 libxc libgrpp elpa parallel scalapack mpi_f08
 CP2K|             cosma xsmm plumed2 spglib libvori libbqb libvdwxc hdf5
 CP2K| is freely available from                            https://www.cp2k.org/
 CP2K| Program compiled at                         Mon May 19 11:32:37 CEST 2025
 CP2K| Program compiled on                                              n2login1
 CP2K| Program compiled for                                                local
 CP2K| Data directory path    /opt/software/pc2/EB-SW/software/CP2K/2024.1-foss-
 CP2K| Input file name                                                    GW.inp

 GLOBAL| Force Environment number                                              1
 GLOBAL| Basis set file name            /scratch/hpc-prf-metdyn/metdyn02_Remi/BA
 GLOBAL| Potential file name            /pc2/groups/hpc-prf-metdyn/metdyn02_Remi
 GLOBAL| MM Potential file name                                     MM_POTENTIAL
 GLOBAL| Coordinate file name                                      __STD_INPUT__
 GLOBAL| Method name                                                        CP2K
 GLOBAL| Project name                                                       MoS2
 GLOBAL| Run type                                                         ENERGY
 GLOBAL| FFT library                                                       FFTW3
 GLOBAL| Diagonalization library                                            ELPA
 GLOBAL| Cholesky decomposition library                                ScaLAPACK
 GLOBAL| DGEMM library                                                      BLAS
 GLOBAL| Minimum number of eigenvectors for ELPA usage                        16
 GLOBAL| Orthonormality check for eigenvectors                          DISABLED
 GLOBAL| Matrix multiplication library                                     COSMA
 GLOBAL| All-to-all communication in single precision                          F
 GLOBAL| FFTs using library dependent lengths                                  F
 GLOBAL| Grid backend                                                       AUTO
 GLOBAL| Global print level                                               MEDIUM
 GLOBAL| MPI I/O enabled                                                       T
 GLOBAL| Total number of message passing processes                            80
 GLOBAL| Number of threads for this process                                    8
 GLOBAL| This output is from process                                           0
 GLOBAL| OpenMP stack size per thread (OMP_STACKSIZE)                    default
 GLOBAL| CPU model name                          AMD EPYC 7763 64-Core Processor
 GLOBAL| CPUID                                                              1002

 MEMORY| system memory details [Kb]
 MEMORY|                        rank 0           min           max       average
 MEMORY| MemTotal            263897596     263897544     263897632     263897593
 MEMORY| MemFree             245350152     244129884     253388344     248879435
 MEMORY| Buffers                 47072         26256        130800         70534
 MEMORY| Cached               13542448       6296116      14461056      10088969
 MEMORY| Slab                  1852448       1136032       2186720       1743068
 MEMORY| SReclaimable           551456        233620        766008        432595
 MEMORY| MemLikelyFree       259491128     259099832     260098204     259471535


 *** Fundamental physical constants (SI units) ***

 *** Literature: B. J. Mohr and B. N. Taylor,
 ***             CODATA recommended values of the fundamental physical
 ***             constants: 2006, Web Version 5.1
 ***             http://physics.nist.gov/constants

 Speed of light in vacuum [m/s]                             2.99792458000000E+08
 Magnetic constant or permeability of vacuum [N/A**2]       1.25663706143592E-06
 Electric constant or permittivity of vacuum [F/m]          8.85418781762039E-12
 Planck constant (h) [J*s]                                  6.62606896000000E-34
 Planck constant (h-bar) [J*s]                              1.05457162825177E-34
 Elementary charge [C]                                      1.60217648700000E-19
 Electron mass [kg]                                         9.10938215000000E-31
 Electron g factor [ ]                                     -2.00231930436220E+00
 Proton mass [kg]                                           1.67262163700000E-27
 Fine-structure constant                                    7.29735253760000E-03
 Rydberg constant [1/m]                                     1.09737315685270E+07
 Avogadro constant [1/mol]                                  6.02214179000000E+23
 Boltzmann constant [J/K]                                   1.38065040000000E-23
 Atomic mass unit [kg]                                      1.66053878200000E-27
 Bohr radius [m]                                            5.29177208590000E-11

 *** Conversion factors ***

 [u] -> [a.u.]                                              1.82288848426455E+03
 [Angstrom] -> [Bohr] = [a.u.]                              1.88972613288564E+00
 [a.u.] = [Bohr] -> [Angstrom]                              5.29177208590000E-01
 [a.u.] -> [s]                                              2.41888432650478E-17
 [a.u.] -> [fs]                                             2.41888432650478E-02
 [a.u.] -> [J]                                              4.35974393937059E-18
 [a.u.] -> [N]                                              8.23872205491840E-08
 [a.u.] -> [K]                                              3.15774647902944E+05
 [a.u.] -> [kJ/mol]                                         2.62549961709828E+03
 [a.u.] -> [kcal/mol]                                       6.27509468713739E+02
 [a.u.] -> [Pa]                                             2.94210107994716E+13
 [a.u.] -> [bar]                                            2.94210107994716E+08
 [a.u.] -> [atm]                                            2.90362800883016E+08
 [a.u.] -> [eV]                                             2.72113838565563E+01
 [a.u.] -> [Hz]                                             6.57968392072181E+15
 [a.u.] -> [1/cm] (wave numbers)                            2.19474631370540E+05
 [a.u./Bohr**2] -> [1/cm]                                   5.14048714338585E+03
 

 CELL_TOP| Volume [angstrom^3]:                                     27000.000000
 CELL_TOP| Vector a [angstrom    30.000     0.000     0.000   |a| =    30.000000
 CELL_TOP| Vector b [angstrom     0.000    30.000     0.000   |b| =    30.000000
 CELL_TOP| Vector c [angstrom     0.000     0.000    30.000   |c| =    30.000000
 CELL_TOP| Angle (b,c), alpha [degree]:                                90.000000
 CELL_TOP| Angle (a,c), beta  [degree]:                                90.000000
 CELL_TOP| Angle (a,b), gamma [degree]:                                90.000000
 CELL_TOP| Numerically orthorhombic:                                         YES
 CELL_TOP| Periodicity                                                      NONE

 GENERATE|  Preliminary Number of Bonds generated:                             0
 GENERATE|  Achieved consistency in connectivity generation.

 CELL| Volume [angstrom^3]:                                         27000.000000
 CELL| Vector a [angstrom]:      30.000     0.000     0.000   |a| =    30.000000
 CELL| Vector b [angstrom]:       0.000    30.000     0.000   |b| =    30.000000
 CELL| Vector c [angstrom]:       0.000     0.000    30.000   |c| =    30.000000
 CELL| Angle (b,c), alpha [degree]:                                    90.000000
 CELL| Angle (a,c), beta  [degree]:                                    90.000000
 CELL| Angle (a,b), gamma [degree]:                                    90.000000
 CELL| Numerically orthorhombic:                                             YES
 CELL| Periodicity                                                          NONE

 CELL_REF| Volume [angstrom^3]:                                     27000.000000
 CELL_REF| Vector a [angstrom    30.000     0.000     0.000   |a| =    30.000000
 CELL_REF| Vector b [angstrom     0.000    30.000     0.000   |b| =    30.000000
 CELL_REF| Vector c [angstrom     0.000     0.000    30.000   |c| =    30.000000
 CELL_REF| Angle (b,c), alpha [degree]:                                90.000000
 CELL_REF| Angle (a,c), beta  [degree]:                                90.000000
 CELL_REF| Angle (a,b), gamma [degree]:                                90.000000
 CELL_REF| Numerically orthorhombic:                                         YES
 CELL_REF| Periodicity                                                      NONE

 *******************************************************************************
 *******************************************************************************
 **                                                                           **
 **     #####                         ##              ##                      **
 **    ##   ##            ##          ##              ##                      **
 **   ##     ##                       ##            ######                    **
 **   ##     ##  ##   ##  ##   #####  ##  ##   ####   ##    #####    #####    **
 **   ##     ##  ##   ##  ##  ##      ## ##   ##      ##   ##   ##  ##   ##   **
 **   ##  ## ##  ##   ##  ##  ##      ####     ###    ##   ######   ######    **
 **    ##  ###   ##   ##  ##  ##      ## ##      ##   ##   ##       ##        **
 **     #######   #####   ##   #####  ##  ##  ####    ##    #####   ##        **
 **           ##                                                    ##        **
 **                                                                           **
 **                                                ... make the atoms dance   **
 **                                                                           **
 **            Copyright (C) by CP2K developers group (2000-2025)             **
 **                      J. Chem. Phys. 152, 194103 (2020)                    **
 **                                                                           **
 *******************************************************************************

 DFT| Spin restricted Kohn-Sham (RKS) calculation                            RKS
 DFT| Multiplicity                                                             1
 DFT| Number of spin states                                                    1
 DFT| Charge                                                                   0
 DFT| Self-interaction correction (SIC)                                       NO
 DFT| Cutoffs: density                                              1.000000E-10
 DFT|          gradient                                             1.000000E-10
 DFT|          tau                                                  1.000000E-10
 DFT|          cutoff_smoothing_range                               0.000000E+00
 DFT| XC density smoothing                                                  NONE
 DFT| XC derivatives                                                          PW

 FUNCTIONAL| PBE:
 FUNCTIONAL| J.P.Perdew, K.Burke, M.Ernzerhof, Phys. Rev. Letter, vol. 77, n 18,
 FUNCTIONAL|  pp. 3865-3868, (1996)sx=0.750sc=1.000{spin unpolarized}           


 QS| Method:                                                                GAPW
 QS| Density plane wave grid type                        NON-SPHERICAL FULLSPACE
 QS| Number of grid levels:                                                    4
 QS| Density cutoff [a.u.]:                                                250.0
 QS| Multi grid cutoff [a.u.]: 1) grid level                               250.0
 QS|                           2) grid level                                83.3
 QS|                           3) grid level                                27.8
 QS|                           4) grid level                                 9.3
 QS| Grid level progression factor:                                          3.0
 QS| Relative density cutoff [a.u.]:                                        50.0
 QS| Interaction thresholds: eps_pgf_orb:                                1.0E-12
 QS|                         eps_filter_matrix:                          0.0E+00
 QS|                         eps_core_charge:                            1.0E-14
 QS|                         eps_rho_gspace:                             1.0E-12
 QS|                         eps_rho_rspace:                             1.0E-12
 QS|                         eps_gvg_rspace:                             1.0E-06
 QS|                         eps_ppl:                                    1.0E-02
 QS|                         eps_ppnl:                                   1.0E-08
 QS| GAPW|      One center basis from orbital basis primitives
 QS| GAPW|                   eps_fit:                                    1.0E-04
 QS| GAPW|                   eps_iso:                                    1.0E-12
 QS| GAPW|                   eps_svd:                                    1.0E-08
 QS| GAPW|                   eps_cpc:                                    1.0E-12
 QS| GAPW|   atom-r-grid: quadrature:                                     GC_LOG
 QS| GAPW|      atom-s-grid:  max l :                                          4
 QS| GAPW|      max_l_rho0 :                                                   2


 ATOMIC KIND INFORMATION

  1. Atomic kind: C                                     Number of atoms:       7

     Orbital Basis Set                                         aug-SZV-MOLOPT-ae

       Number of orbital shell sets:                                           2
       Number of orbital shells:                                               6
       Number of primitive Cartesian functions:                               13
       Number of Cartesian basis functions:                                   15
       Number of spherical basis functions:                                   14
       Norm type:                                                              2

       Normalised Cartesian orbitals:

                        Set   Shell   Orbital            Exponent    Coefficient

                          1       1    2s                0.070000       0.000000
                                                         0.143687       0.040037
                                                         0.313471       0.177689
                                                         0.721783       0.139661
                                                         1.876046      -0.038599
                                                         6.036200      -0.128975
                                                        30.497239      -0.122578

                          1       2    3s                0.070000      -0.142268
                                                         0.143687       0.288819
                                                         0.313471       0.010360
                                                         0.721783       0.175994
                                                         1.876046       0.000000
                                                         6.036200       0.000000
                                                        30.497239       0.000000

                          1       3    3px               0.070000       0.000000
                                                         0.143687       0.012825
                                                         0.313471       0.142381
                                                         0.721783       0.396426
                                                         1.876046       0.544234
                                                         6.036200       0.508157
                                                        30.497239       0.384077
                          1       3    3py               0.070000       0.000000
                                                         0.143687       0.012825
                                                         0.313471       0.142381
                                                         0.721783       0.396426
                                                         1.876046       0.544234
                                                         6.036200       0.508157
                                                        30.497239       0.384077
                          1       3    3pz               0.070000       0.000000
                                                         0.143687       0.012825
                                                         0.313471       0.142381
                                                         0.721783       0.396426
                                                         1.876046       0.544234
                                                         6.036200       0.508157
                                                        30.497239       0.384077

                          1       4    4px               0.070000       0.076505
                                                         0.143687      -0.086104
                                                         0.313471       0.010230
                                                         0.721783       0.129894
                                                         1.876046       0.000000
                                                         6.036200       0.000000
                                                        30.497239       0.000000
                          1       4    4py               0.070000       0.076505
                                                         0.143687      -0.086104
                                                         0.313471       0.010230
                                                         0.721783       0.129894
                                                         1.876046       0.000000
                                                         6.036200       0.000000
                                                        30.497239       0.000000
                          1       4    4pz               0.070000       0.076505
                                                         0.143687      -0.086104
                                                         0.313471       0.010230
                                                         0.721783       0.129894
                                                         1.876046       0.000000
                                                         6.036200       0.000000
                                                        30.497239       0.000000

                          1       5    4dx2              0.070000       0.004316
                                                         0.143687       0.012639
                                                         0.313471       0.125057
                                                         0.721783       0.080411
                                                         1.876046       0.000000
                                                         6.036200       0.000000
                                                        30.497239       0.000000
                          1       5    4dxy              0.070000       0.007476
                                                         0.143687       0.021892
                                                         0.313471       0.216606
                                                         0.721783       0.139276
                                                         1.876046       0.000000
                                                         6.036200       0.000000
                                                        30.497239       0.000000
                          1       5    4dxz              0.070000       0.007476
                                                         0.143687       0.021892
                                                         0.313471       0.216606
                                                         0.721783       0.139276
                                                         1.876046       0.000000
                                                         6.036200       0.000000
                                                        30.497239       0.000000
                          1       5    4dy2              0.070000       0.004316
                                                         0.143687       0.012639
                                                         0.313471       0.125057
                                                         0.721783       0.080411
                                                         1.876046       0.000000
                                                         6.036200       0.000000
                                                        30.497239       0.000000
                          1       5    4dyz              0.070000       0.007476
                                                         0.143687       0.021892
                                                         0.313471       0.216606
                                                         0.721783       0.139276
                                                         1.876046       0.000000
                                                         6.036200       0.000000
                                                        30.497239       0.000000
                          1       5    4dz2              0.070000       0.004316
                                                         0.143687       0.012639
                                                         0.313471       0.125057
                                                         0.721783       0.080411
                                                         1.876046       0.000000
                                                         6.036200       0.000000
                                                        30.497239       0.000000

                          2       1    1s              742.737049       0.929185
                                                       136.180025       1.402437
                                                        38.098264       1.841991
                                                        13.087782       1.817278
                                                         5.082369       1.004768
                                                         2.093200       0.161650

     RI Auxiliary Basis Set             RI_aug-SZV-MOLOPT-ae_N_RI_048_s_p_d_f_g_

       Number of orbital shell sets:                                          14
       Number of orbital shells:                                              14
       Number of primitive Cartesian functions:                               14
       Number of Cartesian basis functions:                                   62
       Number of spherical basis functions:                                   48
       Norm type:                                                              2

       Normalised Cartesian orbitals:

                        Set   Shell   Orbital            Exponent    Coefficient

                          1       1    1s                0.182132       0.198701

                          2       1    7px               0.213594       0.206979
                          2       1    7py               0.213594       0.206979
                          2       1    7pz               0.213594       0.206979

                          3       1   10dx2              0.381125       0.304282
                          3       1   10dxy              0.381125       0.527033
                          3       1   10dxz              0.381125       0.527033
                          3       1   10dy2              0.381125       0.304282
                          3       1   10dyz              0.381125       0.527033
                          3       1   10dz2              0.381125       0.304282

                          4       1    2s                0.433905       0.381027

                          5       1   12fx3              0.524446       0.344573
                          5       1   12fx2y             0.524446       0.770488
                          5       1   12fx2z             0.524446       0.770488
                          5       1   12fxy2             0.524446       0.770488
                          5       1   12fxyz             0.524446       1.334524
                          5       1   12fxz2             0.524446       0.770488
                          5       1   12fy3              0.524446       0.344573
                          5       1   12fy2z             0.524446       0.770488
                          5       1   12fyz2             0.524446       0.770488
                          5       1   12fz3              0.524446       0.344573

                          6       1    8px               0.915857       1.277099
                          6       1    8py               0.915857       1.277099
                          6       1    8pz               0.915857       1.277099

                          7       1   14gx4              1.217666       1.912659
                          7       1   14gx3y             1.217666       5.060419
                          7       1   14gx3z             1.217666       5.060419
                          7       1   14gx2y2            1.217666       6.532973
                          7       1   14gx2yz            1.217666      11.315442
                          7       1   14gx2z2            1.217666       6.532973
                          7       1   14gxy3             1.217666       5.060419
                          7       1   14gxy2z            1.217666      11.315442
                          7       1   14gxyz2            1.217666      11.315442
                          7       1   14gxz3             1.217666       5.060419
                          7       1   14gy4              1.217666       1.912659
                          7       1   14gy3z             1.217666       5.060419
                          7       1   14gy2z2            1.217666       6.532973
                          7       1   14gyz3             1.217666       5.060419
                          7       1   14gz4              1.217666       1.912659

                          8       1   11dx2              1.581488       3.670921
                          8       1   11dxy              1.581488       6.358221
                          8       1   11dxz              1.581488       6.358221
                          8       1   11dy2              1.581488       3.670921
                          8       1   11dyz              1.581488       6.358221
                          8       1   11dz2              1.581488       3.670921

                          9       1    3s                1.620693       1.023730

                         10       1   13fx3              2.677157      13.496481
                         10       1   13fx2y             2.677157      30.179050
                         10       1   13fx2z             2.677157      30.179050
                         10       1   13fxy2             2.677157      30.179050
                         10       1   13fxyz             2.677157      52.271648
                         10       1   13fxz2             2.677157      30.179050
                         10       1   13fy3              2.677157      13.496481
                         10       1   13fy2z             2.677157      30.179050
                         10       1   13fyz2             2.677157      30.179050
                         10       1   13fz3              2.677157      13.496481

                         11       1    4s                5.999661       2.732154

                         12       1    9px               9.284861      23.102519
                         12       1    9py               9.284861      23.102519
                         12       1    9pz               9.284861      23.102519

                         13       1    5s               22.224963       7.295262

                         14       1    6s               82.329769      19.479498

       Atomic covalent radius [Angstrom]:                                  0.770

       Atomic van der Waals radius [Angstrom]:                             1.700

     The atoms of this atomic kind are PAW atoms (GAPW):
       Hard Gaussian function radius:                                      1.512
       Rho0 radius:                                                        1.512
       Maximum GTO radius used for PAW projector construction:            24.566

     GAPW Soft Basis Set                                  aug-SZV-MOLOPT-ae_soft

       Number of orbital shell sets:                                           2
       Number of orbital shells:                                               6
       Number of primitive Cartesian functions:                                6
       Number of Cartesian basis functions:                                   15
       Number of spherical basis functions:                                   14
       Norm type:                                                              2

       Normalised Cartesian orbitals:

                        Set   Shell   Orbital            Exponent    Coefficient

                          1       1    2s                0.070000       0.000000
                                                         0.143687       0.040037
                                                         0.313471       0.177689
                                                         0.721783       0.139661
                                                         1.876046      -0.038599

                          1       2    3s                0.070000      -0.142268
                                                         0.143687       0.288819
                                                         0.313471       0.010360
                                                         0.721783       0.175994
                                                         1.876046       0.000000

                          1       3    3px               0.070000       0.000000
                                                         0.143687       0.012825
                                                         0.313471       0.142381
                                                         0.721783       0.396426
                                                         1.876046       0.544234
                          1       3    3py               0.070000       0.000000
                                                         0.143687       0.012825
                                                         0.313471       0.142381
                                                         0.721783       0.396426
                                                         1.876046       0.544234
                          1       3    3pz               0.070000       0.000000
                                                         0.143687       0.012825
                                                         0.313471       0.142381
                                                         0.721783       0.396426
                                                         1.876046       0.544234

                          1       4    4px               0.070000       0.076505
                                                         0.143687      -0.086104
                                                         0.313471       0.010230
                                                         0.721783       0.129894
                                                         1.876046       0.000000
                          1       4    4py               0.070000       0.076505
                                                         0.143687      -0.086104
                                                         0.313471       0.010230
                                                         0.721783       0.129894
                                                         1.876046       0.000000
                          1       4    4pz               0.070000       0.076505
                                                         0.143687      -0.086104
                                                         0.313471       0.010230
                                                         0.721783       0.129894
                                                         1.876046       0.000000

                          1       5    4dx2              0.070000       0.004316
                                                         0.143687       0.012639
                                                         0.313471       0.125057
                                                         0.721783       0.080411
                                                         1.876046       0.000000
                          1       5    4dxy              0.070000       0.007476
                                                         0.143687       0.021892
                                                         0.313471       0.216606
                                                         0.721783       0.139276
                                                         1.876046       0.000000
                          1       5    4dxz              0.070000       0.007476
                                                         0.143687       0.021892
                                                         0.313471       0.216606
                                                         0.721783       0.139276
                                                         1.876046       0.000000
                          1       5    4dy2              0.070000       0.004316
                                                         0.143687       0.012639
                                                         0.313471       0.125057
                                                         0.721783       0.080411
                                                         1.876046       0.000000
                          1       5    4dyz              0.070000       0.007476
                                                         0.143687       0.021892
                                                         0.313471       0.216606
                                                         0.721783       0.139276
                                                         1.876046       0.000000
                          1       5    4dz2              0.070000       0.004316
                                                         0.143687       0.012639
                                                         0.313471       0.125057
                                                         0.721783       0.080411
                                                         1.876046       0.000000

                          2       1    1s                2.093200       0.161650

     AE Potential information for                                            ALL

       Description:                                       All-electron potential
                                          Krack, Parrinello, PCCP 2, 2105 (2000)

       Gaussian exponent of the core charge distribution:               4.109048
       Electronic configuration (s p d ...):                           4   2   0

  2. Atomic kind: H                                     Number of atoms:       5

     Orbital Basis Set                                         aug-SZV-MOLOPT-ae

       Number of orbital shell sets:                                           1
       Number of orbital shells:                                               4
       Number of primitive Cartesian functions:                                7
       Number of Cartesian basis functions:                                    6
       Number of spherical basis functions:                                    6
       Norm type:                                                              2

       Normalised Cartesian orbitals:

                        Set   Shell   Orbital            Exponent    Coefficient

                          1       1    1s                0.065428       0.000000
                                                         0.100112       0.016532
                                                         0.243077       0.102760
                                                         0.625955       0.185857
                                                         1.822143       0.188385
                                                         6.513144       0.143430
                                                        35.523221       0.095030

                          1       2    2s                0.065428       0.083549
                                                         0.100112       0.009605
                                                         0.243077       0.002524
                                                         0.625955       0.013457
                                                         1.822143       0.000000
                                                         6.513144       0.000000
                                                        35.523221       0.000000

                          1       3    3s                0.065428       0.037407
                                                         0.100112      -0.169070
                                                         0.243077      -0.018899
                                                         0.625955       0.012806
                                                         1.822143       0.000000
                                                         6.513144       0.000000
                                                        35.523221       0.000000

                          1       4    2px               0.065428       0.059908
                                                         0.100112      -0.023770
                                                         0.243077       0.000032
                                                         0.625955       0.017779
                                                         1.822143       0.000000
                                                         6.513144       0.000000
                                                        35.523221       0.000000
                          1       4    2py               0.065428       0.059908
                                                         0.100112      -0.023770
                                                         0.243077       0.000032
                                                         0.625955       0.017779
                                                         1.822143       0.000000
                                                         6.513144       0.000000
                                                        35.523221       0.000000
                          1       4    2pz               0.065428       0.059908
                                                         0.100112      -0.023770
                                                         0.243077       0.000032
                                                         0.625955       0.017779
                                                         1.822143       0.000000
                                                         6.513144       0.000000
                                                        35.523221       0.000000

     RI Auxiliary Basis Set             RI_aug-SZV-MOLOPT-ae_N_RI_010_s_p_d_f_g_

       Number of orbital shell sets:                                           6
       Number of orbital shells:                                               6
       Number of primitive Cartesian functions:                                6
       Number of Cartesian basis functions:                                   10
       Number of spherical basis functions:                                   10
       Norm type:                                                              2

       Normalised Cartesian orbitals:

                        Set   Shell   Orbital            Exponent    Coefficient

                          1       1    1s                0.176483       0.194061

                          2       1    5px               0.271192       0.278957
                          2       1    5py               0.271192       0.278957
                          2       1    5pz               0.271192       0.278957

                          3       1    2s                0.492580       0.419052

                          4       1    3s                1.172790       0.803203

                          5       1    6px               1.607445       2.579943
                          5       1    6py               1.607445       2.579943
                          5       1    6pz               1.607445       2.579943

                          6       1    4s                4.913565       2.352110

       Atomic covalent radius [Angstrom]:                                  0.320

       Atomic van der Waals radius [Angstrom]:                             1.090

     The atoms of this atomic kind are PAW atoms (GAPW):
       Hard Gaussian function radius:                                      1.200
       Rho0 radius:                                                        1.200
       Maximum GTO radius used for PAW projector construction:            24.566

     GAPW Soft Basis Set                                  aug-SZV-MOLOPT-ae_soft

       Number of orbital shell sets:                                           1
       Number of orbital shells:                                               4
       Number of primitive Cartesian functions:                                6
       Number of Cartesian basis functions:                                    6
       Number of spherical basis functions:                                    6
       Norm type:                                                              2

       Normalised Cartesian orbitals:

                        Set   Shell   Orbital            Exponent    Coefficient

                          1       1    1s                0.065428       0.000000
                                                         0.100112       0.016532
                                                         0.243077       0.102760
                                                         0.625955       0.185857
                                                         1.822143       0.188385
                                                         6.513144       0.000000

                          1       2    2s                0.065428       0.083549
                                                         0.100112       0.009605
                                                         0.243077       0.002524
                                                         0.625955       0.013457
                                                         1.822143       0.000000
                                                         6.513144       0.000000

                          1       3    3s                0.065428       0.037407
                                                         0.100112      -0.169070
                                                         0.243077      -0.018899
                                                         0.625955       0.012806
                                                         1.822143       0.000000
                                                         6.513144       0.000000

                          1       4    2px               0.065428       0.059908
                                                         0.100112      -0.023770
                                                         0.243077       0.000032
                                                         0.625955       0.017779
                                                         1.822143       0.000000
                                                         6.513144       0.000000
                          1       4    2py               0.065428       0.059908
                                                         0.100112      -0.023770
                                                         0.243077       0.000032
                                                         0.625955       0.017779
                                                         1.822143       0.000000
                                                         6.513144       0.000000
                          1       4    2pz               0.065428       0.059908
                                                         0.100112      -0.023770
                                                         0.243077       0.000032
                                                         0.625955       0.017779
                                                         1.822143       0.000000
                                                         6.513144       0.000000

     AE Potential information for                                            ALL

       Description:                                       All-electron potential
                                          Krack, Parrinello, PCCP 2, 2105 (2000)

       Gaussian exponent of the core charge distribution:              12.500000
       Electronic configuration (s p d ...):                           1   0   0

  3. Atomic kind: O                                     Number of atoms:       1

     Orbital Basis Set                                         aug-SZV-MOLOPT-ae

       Number of orbital shell sets:                                           2
       Number of orbital shells:                                               6
       Number of primitive Cartesian functions:                               13
       Number of Cartesian basis functions:                                   15
       Number of spherical basis functions:                                   14
       Norm type:                                                              2

       Normalised Cartesian orbitals:

                        Set   Shell   Orbital            Exponent    Coefficient

                          1       1    1s                0.123000       0.000000
                                                         0.245881       0.059902
                                                         0.536420       0.265853
                                                         1.235135       0.208956
                                                         3.210345      -0.057750
                                                        10.329320      -0.192968
                                                        52.187762      -0.183398

                          1       2    2s                0.123000      -0.253465
                                                         0.245881       0.187097
                                                         0.536420       0.063592
                                                         1.235135       0.074938
                                                         3.210345       0.000000
                                                        10.329320       0.000000
                                                        52.187762       0.000000

                          1       3    2px               0.123000       0.000000
                                                         0.245881       0.025102
                                                         0.536420       0.278668
                                                         1.235135       0.775885
                                                         3.210345       1.065175
                                                        10.329320       0.994565
                                                        52.187762       0.751716
                          1       3    2py               0.123000       0.000000
                                                         0.245881       0.025102
                                                         0.536420       0.278668
                                                         1.235135       0.775885
                                                         3.210345       1.065175
                                                        10.329320       0.994565
                                                        52.187762       0.751716
                          1       3    2pz               0.123000       0.000000
                                                         0.245881       0.025102
                                                         0.536420       0.278668
                                                         1.235135       0.775885
                                                         3.210345       1.065175
                                                        10.329320       0.994565
                                                        52.187762       0.751716

                          1       4    3px               0.123000       0.048536
                                                         0.245881       0.257066
                                                         0.536420      -0.539300
                                                         1.235135      -0.153605
                                                         3.210345       0.000000
                                                        10.329320       0.000000
                                                        52.187762       0.000000
                          1       4    3py               0.123000       0.048536
                                                         0.245881       0.257066
                                                         0.536420      -0.539300
                                                         1.235135      -0.153605
                                                         3.210345       0.000000
                                                        10.329320       0.000000
                                                        52.187762       0.000000
                          1       4    3pz               0.123000       0.048536
                                                         0.245881       0.257066
                                                         0.536420      -0.539300
                                                         1.235135      -0.153605
                                                         3.210345       0.000000
                                                        10.329320       0.000000
                                                        52.187762       0.000000

                          1       5    3dx2              0.123000       0.022065
                                                         0.245881       0.038414
                                                         0.536420       0.100211
                                                         1.235135       0.626583
                                                         3.210345       0.000000
                                                        10.329320       0.000000
                                                        52.187762       0.000000
                          1       5    3dxy              0.123000       0.038217
                                                         0.245881       0.066534
                                                         0.536420       0.173571
                                                         1.235135       1.085274
                                                         3.210345       0.000000
                                                        10.329320       0.000000
                                                        52.187762       0.000000
                          1       5    3dxz              0.123000       0.038217
                                                         0.245881       0.066534
                                                         0.536420       0.173571
                                                         1.235135       1.085274
                                                         3.210345       0.000000
                                                        10.329320       0.000000
                                                        52.187762       0.000000
                          1       5    3dy2              0.123000       0.022065
                                                         0.245881       0.038414
                                                         0.536420       0.100211
                                                         1.235135       0.626583
                                                         3.210345       0.000000
                                                        10.329320       0.000000
                                                        52.187762       0.000000
                          1       5    3dyz              0.123000       0.038217
                                                         0.245881       0.066534
                                                         0.536420       0.173571
                                                         1.235135       1.085274
                                                         3.210345       0.000000
                                                        10.329320       0.000000
                                                        52.187762       0.000000
                          1       5    3dz2              0.123000       0.022065
                                                         0.245881       0.038414
                                                         0.536420       0.100211
                                                         1.235135       0.626583
                                                         3.210345       0.000000
                                                        10.329320       0.000000
                                                        52.187762       0.000000

                          2       1    1s             1355.584234       1.459053
                                                       248.544885       2.202176
                                                        69.533902       2.892385
                                                        23.886772       2.853580
                                                         9.275933       1.577736
                                                         3.820341       0.253831

     RI Auxiliary Basis Set             RI_aug-SZV-MOLOPT-ae_N_RI_059_s_p_d_f_g_

       Number of orbital shell sets:                                          19
       Number of orbital shells:                                              19
       Number of primitive Cartesian functions:                               19
       Number of Cartesian basis functions:                                   69
       Number of spherical basis functions:                                   59
       Norm type:                                                              2

       Normalised Cartesian orbitals:

                        Set   Shell   Orbital            Exponent    Coefficient

                          1       1    8px               0.387183       0.435347
                          1       1    8py               0.387183       0.435347
                          1       1    8pz               0.387183       0.435347

                          2       1    1s                0.401814       0.359691

                          3       1   14dx2              0.406975       0.341313
                          3       1   14dxy              0.406975       0.591171
                          3       1   14dxz              0.406975       0.591171
                          3       1   14dy2              0.406975       0.341313
                          3       1   14dyz              0.406975       0.591171
                          3       1   14dz2              0.406975       0.341313

                          4       1   18fx3              0.710316       0.681900
                          4       1   18fx2y             0.710316       1.524775
                          4       1   18fx2z             0.710316       1.524775
                          4       1   18fxy2             0.710316       1.524775
                          4       1   18fxyz             0.710316       2.640987
                          4       1   18fxz2             0.710316       1.524775
                          4       1   18fy3              0.710316       0.681900
                          4       1   18fy2z             0.710316       1.524775
                          4       1   18fyz2             0.710316       1.524775
                          4       1   18fz3              0.710316       0.681900

                          5       1    2s                0.815118       0.611400

                          6       1    9px               0.936160       1.312586
                          6       1    9py               0.936160       1.312586
                          6       1    9pz               0.936160       1.312586

                          7       1   15dx2              1.399120       2.962482
                          7       1   15dxy              1.399120       5.131170
                          7       1   15dxz              1.399120       5.131170
                          7       1   15dy2              1.399120       2.962482
                          7       1   15dyz              1.399120       5.131170
                          7       1   15dz2              1.399120       2.962482

                          8       1   19fx3              2.975548      17.119068
                          8       1   19fx2y             2.975548      38.279399
                          8       1   19fx2z             2.975548      38.279399
                          8       1   19fxy2             2.975548      38.279399
                          8       1   19fxyz             2.975548      66.301864
                          8       1   19fxz2             2.975548      38.279399
                          8       1   19fy3              2.975548      17.119068
                          8       1   19fy2z             2.975548      38.279399
                          8       1   19fyz2             2.975548      38.279399
                          8       1   19fz3              2.975548      17.119068

                          9       1    3s                2.984514       1.618323

                         10       1   10px               3.853534       7.695984
                         10       1   10py               3.853534       7.695984
                         10       1   10pz               3.853534       7.695984

                         11       1   16dx2              4.872389      26.300125
                         11       1   16dxy              4.872389      45.553152
                         11       1   16dxz              4.872389      45.553152
                         11       1   16dy2              4.872389      26.300125
                         11       1   16dyz              4.872389      45.553152
                         11       1   16dz2              4.872389      26.300125

                         12       1    4s               10.894835       4.273912

                         13       1   11px              11.105891      28.898937
                         13       1   11py              11.105891      28.898937
                         13       1   11pz              11.105891      28.898937

                         14       1   17dx2             21.877838     364.264749
                         14       1   17dxy             21.877838     630.925052
                         14       1   17dxz             21.877838     630.925052
                         14       1   17dy2             21.877838     364.264749
                         14       1   17dyz             21.877838     630.925052
                         14       1   17dz2             21.877838     364.264749

                         15       1   12px              32.392274     110.151873
                         15       1   12py              32.392274     110.151873
                         15       1   12pz              32.392274     110.151873

                         16       1    5s               38.971767      11.116618

                         17       1   13px              93.034236     411.854279
                         17       1   13py              93.034236     411.854279
                         17       1   13pz              93.034236     411.854279

                         18       1    6s              138.098524      28.711235

                         19       1    7s              488.376845      74.041702

       Atomic covalent radius [Angstrom]:                                  0.730

       Atomic van der Waals radius [Angstrom]:                             1.520

     The atoms of this atomic kind are PAW atoms (GAPW):
       Hard Gaussian function radius:                                      1.512
       Rho0 radius:                                                        1.512
       Maximum GTO radius used for PAW projector construction:            24.566

     GAPW Soft Basis Set                                  aug-SZV-MOLOPT-ae_soft

       Number of orbital shell sets:                                           2
       Number of orbital shells:                                               6
       Number of primitive Cartesian functions:                                6
       Number of Cartesian basis functions:                                   15
       Number of spherical basis functions:                                   14
       Norm type:                                                              2

       Normalised Cartesian orbitals:

                        Set   Shell   Orbital            Exponent    Coefficient

                          1       1    1s                0.123000       0.000000
                                                         0.245881       0.059902
                                                         0.536420       0.265853
                                                         1.235135       0.208956
                                                         3.210345      -0.057750

                          1       2    2s                0.123000      -0.253465
                                                         0.245881       0.187097
                                                         0.536420       0.063592
                                                         1.235135       0.074938
                                                         3.210345       0.000000

                          1       3    2px               0.123000       0.000000
                                                         0.245881       0.025102
                                                         0.536420       0.278668
                                                         1.235135       0.775885
                                                         3.210345       1.065175
                          1       3    2py               0.123000       0.000000
                                                         0.245881       0.025102
                                                         0.536420       0.278668
                                                         1.235135       0.775885
                                                         3.210345       1.065175
                          1       3    2pz               0.123000       0.000000
                                                         0.245881       0.025102
                                                         0.536420       0.278668
                                                         1.235135       0.775885
                                                         3.210345       1.065175

                          1       4    3px               0.123000       0.048536
                                                         0.245881       0.257066
                                                         0.536420      -0.539300
                                                         1.235135      -0.153605
                                                         3.210345       0.000000
                          1       4    3py               0.123000       0.048536
                                                         0.245881       0.257066
                                                         0.536420      -0.539300
                                                         1.235135      -0.153605
                                                         3.210345       0.000000
                          1       4    3pz               0.123000       0.048536
                                                         0.245881       0.257066
                                                         0.536420      -0.539300
                                                         1.235135      -0.153605
                                                         3.210345       0.000000

                          1       5    3dx2              0.123000       0.022065
                                                         0.245881       0.038414
                                                         0.536420       0.100211
                                                         1.235135       0.626583
                                                         3.210345       0.000000
                          1       5    3dxy              0.123000       0.038217
                                                         0.245881       0.066534
                                                         0.536420       0.173571
                                                         1.235135       1.085274
                                                         3.210345       0.000000
                          1       5    3dxz              0.123000       0.038217
                                                         0.245881       0.066534
                                                         0.536420       0.173571
                                                         1.235135       1.085274
                                                         3.210345       0.000000
                          1       5    3dy2              0.123000       0.022065
                                                         0.245881       0.038414
                                                         0.536420       0.100211
                                                         1.235135       0.626583
                                                         3.210345       0.000000
                          1       5    3dyz              0.123000       0.038217
                                                         0.245881       0.066534
                                                         0.536420       0.173571
                                                         1.235135       1.085274
                                                         3.210345       0.000000
                          1       5    3dz2              0.123000       0.022065
                                                         0.245881       0.038414
                                                         0.536420       0.100211
                                                         1.235135       0.626583
                                                         3.210345       0.000000

                          2       1    1s                3.820341       0.253831

     AE Potential information for                                            ALL

       Description:                                       All-electron potential
                                          Krack, Parrinello, PCCP 2, 2105 (2000)

       Gaussian exponent of the core charge distribution:               8.154466
       Electronic configuration (s p d ...):                           4   4   0

  4. Atomic kind: N                                     Number of atoms:       1

     Orbital Basis Set                                         aug-SZV-MOLOPT-ae

       Number of orbital shell sets:                                           2
       Number of orbital shells:                                               6
       Number of primitive Cartesian functions:                               13
       Number of Cartesian basis functions:                                   15
       Number of spherical basis functions:                                   14
       Norm type:                                                              2

       Normalised Cartesian orbitals:

                        Set   Shell   Orbital            Exponent    Coefficient

                          1       1    1s                0.090000       0.000000
                                                         0.184684       0.048330
                                                         0.402911       0.214496
                                                         0.927724       0.168591
                                                         2.411326      -0.046594
                                                         7.758467      -0.155691
                                                        39.198808      -0.147969

                          1       2    2s                0.090000      -0.118940
                                                         0.184684       0.080942
                                                         0.402911      -0.164238
                                                         0.927724      -0.024406
                                                         2.411326       0.000000
                                                         7.758467       0.000000
                                                        39.198808       0.000000

                          1       3    2px               0.090000       0.000000
                                                         0.184684       0.017552
                                                         0.402911       0.194858
                                                         0.927724       0.542535
                                                         2.411326       0.744820
                                                         7.758467       0.695446
                                                        39.198808       0.525635
                          1       3    2py               0.090000       0.000000
                                                         0.184684       0.017552
                                                         0.402911       0.194858
                                                         0.927724       0.542535
                                                         2.411326       0.744820
                                                         7.758467       0.695446
                                                        39.198808       0.525635
                          1       3    2pz               0.090000       0.000000
                                                         0.184684       0.017552
                                                         0.402911       0.194858
                                                         0.927724       0.542535
                                                         2.411326       0.744820
                                                         7.758467       0.695446
                                                        39.198808       0.525635

                          1       4    3px               0.090000      -0.032237
                                                         0.184684      -0.080882
                                                         0.402911       0.112185
                                                         0.927724       1.067728
                                                         2.411326       0.000000
                                                         7.758467       0.000000
                                                        39.198808       0.000000
                          1       4    3py               0.090000      -0.032237
                                                         0.184684      -0.080882
                                                         0.402911       0.112185
                                                         0.927724       1.067728
                                                         2.411326       0.000000
                                                         7.758467       0.000000
                                                        39.198808       0.000000
                          1       4    3pz               0.090000      -0.032237
                                                         0.184684      -0.080882
                                                         0.402911       0.112185
                                                         0.927724       1.067728
                                                         2.411326       0.000000
                                                         7.758467       0.000000
                                                        39.198808       0.000000

                          1       5    3dx2              0.090000      -0.010633
                                                         0.184684      -0.050923
                                                         0.402911       0.103346
                                                         0.927724      -0.777682
                                                         2.411326       0.000000
                                                         7.758467       0.000000
                                                        39.198808       0.000000
                          1       5    3dxy              0.090000      -0.018417
                                                         0.184684      -0.088201
                                                         0.402911       0.179000
                                                         0.927724      -1.346985
                                                         2.411326       0.000000
                                                         7.758467       0.000000
                                                        39.198808       0.000000
                          1       5    3dxz              0.090000      -0.018417
                                                         0.184684      -0.088201
                                                         0.402911       0.179000
                                                         0.927724      -1.346985
                                                         2.411326       0.000000
                                                         7.758467       0.000000
                                                        39.198808       0.000000
                          1       5    3dy2              0.090000      -0.010633
                                                         0.184684      -0.050923
                                                         0.402911       0.103346
                                                         0.927724      -0.777682
                                                         2.411326       0.000000
                                                         7.758467       0.000000
                                                        39.198808       0.000000
                          1       5    3dyz              0.090000      -0.018417
                                                         0.184684      -0.088201
                                                         0.402911       0.179000
                                                         0.927724      -1.346985
                                                         2.411326       0.000000
                                                         7.758467       0.000000
                                                        39.198808       0.000000
                          1       5    3dz2              0.090000      -0.010633
                                                         0.184684      -0.050923
                                                         0.402911       0.103346
                                                         0.927724      -0.777682
                                                         2.411326       0.000000
                                                         7.758467       0.000000
                                                        39.198808       0.000000

                          2       1    1s             1027.828458       1.185541
                                                       188.451223       1.789359
                                                        52.721861       2.350183
                                                        18.111382       2.318652
[...]
 calc_screening_functions             1 10.0    0.406    0.412    1.023    1.059
 mp_sum_dv                         5061  8.7    0.993    1.043    0.993    1.043
 mp_sum_dm                         3739  7.7    0.834    0.982    0.834    0.982
 pw_gather_p                        867 11.8    0.890    0.959    0.890    0.959
 pw_copy                           1300 10.6    0.904    0.945    0.904    0.945
 cp2k_distribution_to_z_slices       87  9.0    0.326    0.398    0.911    0.942
 mp_sendrecv_dv                   13746 10.0    0.861    0.914    0.861    0.914
 abc_contract_xsmm                77190 10.6    0.220    0.877    0.220    0.877
 G_times_3c                          60  8.0    0.000    0.000    0.788    0.788
 calc_pair_dist_radii                 1 10.0    0.253    0.257    0.737    0.756
 dbt_tas_dbm                        396 14.4    0.000    0.000    0.714    0.717
 eigensolver_symm                    86  6.0    0.006    0.007    0.698    0.701
 rs_grid_zero                       437 11.2    0.616    0.651    0.616    0.651
 fft_wrap_pw1pw2_90                 174 10.5    0.027    0.028    0.591    0.649
 pw_poisson_set                      88  9.0    0.001    0.001    0.595    0.628
 pw_copy_to_array                   867 11.8    0.514    0.622    0.514    0.622
 cp_fm_diag_elpa                     92  7.1    0.000    0.000    0.607    0.611
 compute_V_xc                         1  7.0    0.000    0.000    0.606    0.606
 cp_fm_diag_elpa_base                92  8.0    0.561    0.587    0.572    0.593
 rs_gather_matrices                  87 10.0    0.002    0.004    0.501    0.589
 dbm_multiply                       396 16.4    0.491    0.584    0.491    0.584
 dbt_tas_distribution_new          1404 14.4    0.292    0.318    0.524    0.546
 copy_dbcsr_to_fm                   280  8.3    0.003    0.003    0.516    0.546
 mp_bcast_dm                       2437  9.0    0.521    0.540    0.521    0.540
 fm_write                           121  9.0    0.005    0.246    0.412    0.539
 pw_copy_from_array                 951 12.1    0.445    0.532    0.445    0.532
 calculate_dm_sparse                 86  6.0    0.000    0.000    0.367    0.525
 grid_integrate_task_list            87 10.0    0.079    0.525    0.079    0.525
 cp_dbcsr_plus_fm_fm_t               86  7.0    0.001    0.001    0.366    0.524
 transfer_pw2rs_10                   87 12.0    0.140    0.150    0.502    0.520
 parallel_gemm_fm                   356  8.2    0.000    0.000    0.441    0.497
 parallel_gemm_fm_cosma             356  9.2    0.441    0.497    0.441    0.497
 dbcsr_complete_redistribute        604  9.4    0.016    0.020    0.487    0.494
 write_matrix                        91  8.0    0.000    0.000    0.397    0.493
 dbt_tas_estimate_result_nze        198 12.9    0.020    0.029    0.489    0.490
 dbt_tas_create_split              1348 15.1    0.001    0.001    0.469    0.475
 dbt_tas_create_split_rows_or_c    1348 16.1    0.003    0.003    0.468    0.474
 parallel_gemm_cfm                  283 10.4    0.000    0.000    0.456    0.463
 parallel_gemm_cfm_cosma            283 11.4    0.456    0.463    0.456    0.463
 mp_isend_dm3                      3144 11.5    0.130    0.449    0.130    0.449
 pw_integral_ab_c1d_c1d_gs           87  9.0    0.382    0.390    0.418    0.429
 cp_fm_write_unformatted            126  9.9    0.422    0.426    0.422    0.427
 pw_axpy                            865  9.3    0.391    0.414    0.391    0.414
 fm_to_local_tensor                 152  8.0    0.001    0.002    0.396    0.399
 dbcsr_multiply_generic              86  8.0    0.003    0.003    0.239    0.394
 compute_cfm_W_ikp_freq_j            30 10.0    0.000    0.001    0.387    0.389
 pw_poisson_rebuild                  87  9.0    0.000    0.000    0.367    0.382
 ps_wavelet_create                    1 10.0    0.000    0.000    0.367    0.382
 RS_z_slice_distribution              1 11.0    0.253    0.281    0.367    0.382
 update_ks_atom                      87  8.0    0.023    0.037    0.343    0.361
 reshape_mm_small                   396 14.4    0.026    0.027    0.349    0.355
 check_sparsity_3c                    1  7.0    0.000    0.000    0.337    0.337
 multiply_cannon                     86  9.0    0.005    0.007    0.156    0.312
 transfer_rs2pw_10                   87  9.0    0.088    0.093    0.291    0.311
 multiply_cannon_loop                86 10.0    0.005    0.005    0.144    0.298
 dbt_tas_mm_2                       146 15.2    0.000    0.000    0.289    0.289
 self_consistency_check              86  5.0    0.000    0.000    0.167    0.289
 cp_sm_mix                           86  6.0    0.000    0.000    0.167    0.289
 mp_max_d                            93  7.0    0.166    0.289    0.166    0.289
 multiply_cannon_metrocomm3        1720 11.0    0.002    0.002    0.105    0.282
 calculate_rho_atom_coeff            87  6.0    0.029    0.038    0.270    0.271
 mp_cart_create                    2898 14.4    0.250    0.267    0.252    0.269
 G_occ_vir                          121  8.0    0.001    0.004    0.222    0.269
 dbcsr_desymmetrize_deep            286  9.3    0.004    0.005    0.235    0.264
 qs_energies_init_hamiltonians        1  3.0    0.000    0.000    0.254    0.254
 reshape_mm_compatible              396 14.4    0.004    0.005    0.244    0.252
 build_core_hamiltonian_matrix        1  4.0    0.000    0.000    0.251    0.251
 overlap_condnum                      1  5.0    0.000    0.000    0.249    0.251
 Vh_1c_gg_integrals                  87  8.0    0.013    0.182    0.234    0.250
 init_scf_run                         1  3.0    0.000    0.000    0.244    0.245
 pw_zero                            518 10.3    0.230    0.239    0.230    0.239
 scf_env_initial_rho_setup            1  4.0    0.000    0.000    0.235    0.235
 mp_sum_l                          3040 12.0    0.200    0.234    0.200    0.234
 arnoldi_conjugate_gradient           5  6.0    0.005    0.006    0.231    0.231
 dbt_create_matrix                  152  9.0    0.001    0.001    0.228    0.229
 change_split                       594 14.9    0.002    0.002    0.219    0.227
 dbm_redistribute                   444 13.7    0.173    0.224    0.173    0.224
 copy_fm_to_dbcsr                   324  8.5    0.001    0.001    0.216    0.224
 convert_to_new_pgrid              1188 14.4    0.064    0.100    0.189    0.216
 mp_alltoall_i11v                  2098 10.4    0.213    0.213    0.213    0.213
 mp_comm_split_direct              1350 17.1    0.211    0.212    0.212    0.213
 mp_isendrecv_dv                  27492 12.0    0.042    0.208    0.042    0.208
 dbt_distribution_new_expert        316 10.5    0.002    0.002    0.205    0.206
 qs_init_subsys                       1  2.0    0.001    0.001    0.196    0.197
 qs_env_setup                         1  3.0    0.000    0.000    0.192    0.193
 qs_env_rebuild_pw_env                2  3.5    0.000    0.000    0.192    0.193
 pw_env_rebuild                       1  5.0    0.000    0.000    0.192    0.193
 pw_grid_setup                        4  6.0    0.000    0.000    0.172    0.173
 pw_grid_setup_internal               4  7.0    0.002    0.003    0.172    0.173
 dbt_copy                           420 10.0    0.002    0.002    0.128    0.169
 fft_wrap_pw1pw2_30                 174 10.5    0.005    0.006    0.161    0.168
 get_Sigma_x                          1  7.0    0.000    0.000    0.163    0.163
 compute_Sigma_x                      1  8.0    0.000    0.000    0.163    0.163
 multiply_cannon_metrocomm1        1720 11.0    0.001    0.001    0.019    0.162
 multiply_cannon_metrocomm4        1634 11.0    0.002    0.003    0.009    0.158
 multiply_fm_W_MIC_time_with_Mi       2  9.0    0.000    0.000    0.157    0.157
 mp_comm_dup                       1154 17.5    0.142    0.151    0.142    0.152
 dbt_reshape                        256 10.9    0.042    0.047    0.109    0.148
 mp_alltoall_i22                    890 10.4    0.113    0.147    0.113    0.147
 compute_QP_energies                  1  7.0    0.000    0.000    0.146    0.147
 mp_max_i                           970  6.5    0.117    0.145    0.117    0.145
 dbt_tas_reshape                    497 14.6    0.003    0.004    0.102    0.140
 dbcsr_sym_matrix_vector_mult      1575  7.0    0.011    0.012    0.134    0.139
 dbt_tas_mm_1N                      104 15.5    0.000    0.000    0.088    0.134
 mp_waitall_2                      2392 16.0    0.074    0.133    0.074    0.133
 dbt_tas_mm_3N                       48 15.5    0.000    0.000    0.111    0.131
 dbt_tas_replicate                  396 14.4    0.019    0.022    0.121    0.130
 check_for_restart_files              1  7.0    0.101    0.125    0.101    0.125
 pw_grid_sort                         4  8.0    0.082    0.085    0.111    0.122
 integrate_four_center_load          87 10.0    0.000    0.000    0.077    0.116
 hfx_load_balance                     1 11.0    0.000    0.000    0.076    0.116
 setup_time_and_frequency_minim       1  7.0    0.000    0.000    0.100    0.107
 to_ikp_and_mo                       62  8.0    0.000    0.000    0.106    0.106
 dbcsr_add_d                       3332  8.1    0.002    0.002    0.030    0.105
 fm_Gamma_ao_to_cfm_ikp_mo           62  9.0    0.000    0.000    0.103    0.104
 dbcsr_add_anytype                 3332  9.1    0.004    0.012    0.029    0.103
 scale_and_distribute               174 10.0    0.075    0.102    0.075    0.102
 dbt_tas_mm_3T                       98 15.5    0.000    0.000    0.077    0.102
 dbt_tas_communicate_buffer         893 16.5    0.007    0.009    0.058    0.101
 mp_alltoall_i                     1648 14.3    0.089    0.099    0.089    0.099
 create_qs_kind_set                   1  2.0    0.000    0.000    0.098    0.099
 read_qs_kind                         4  3.0    0.039    0.048    0.098    0.099
 calculate_rho0_atom                348  9.0    0.089    0.092    0.089    0.092
 dbcsr_finalize                    6590 11.3    0.011    0.023    0.048    0.089
 vxc_of_r_new                       688  9.0    0.001    0.014    0.004    0.089
 dbt_create_new                     158 10.0    0.001    0.002    0.087    0.088
 cp_cfm_cholesky_decompose           35 10.7    0.085    0.087    0.085    0.087
 compute_fm_chi_Gamma_freq           30 10.0    0.000    0.000    0.083    0.086
 hybrid_alltoall_any                458 10.9    0.002    0.002    0.082    0.083
 fft_wrap_pw1pw2_10                 174 10.5    0.001    0.002    0.078    0.082
 fill_fm_Sigma_c_Gamma_time           1  8.0    0.000    0.000    0.080    0.080
 hfx_load_balance_range               1 12.0    0.000    0.000    0.040    0.080
 dbt_communicate_buffer             256 11.9    0.001    0.002    0.045    0.080
 mp_cart_sub                        576 10.3    0.079    0.079    0.079    0.079
 pw_scale                           345  9.5    0.048    0.074    0.048    0.074
 cp_fm_power                          3  8.7    0.000    0.001    0.065    0.065
 cp_cfm_cholesky_invert              31 11.0    0.060    0.062    0.060    0.062
 make_m2s                           172  9.0    0.003    0.003    0.060    0.062
 cp_cfm_geeig                         2  7.0    0.000    0.000    0.061    0.061
 dbt_tas_merge                      146 14.2    0.010    0.012    0.039    0.061
 parser_read_line                 17131  4.0    0.003    0.003    0.059    0.061
 mp_rank_compare                   1818 13.0    0.053    0.059    0.053    0.059
 parser_read_line_low                30  5.0    0.001    0.016    0.057    0.058
 broadcast_input_information         30  6.0    0.005    0.005    0.055    0.057
 dbt_tas_reshape_communicate_bu     497 15.6    0.001    0.001    0.023    0.056
 dbt_pgrid_create_expert            320 11.5    0.000    0.001    0.052    0.054
 dbcsr_col_vec_to_rep_row          1575  8.0    0.005    0.005    0.045    0.054
 integrate_four_center_dist_KS       87 10.0    0.006    0.008    0.044    0.046
 dbcsr_rep_row_to_rep_col_vec      1575  8.0    0.004    0.004    0.032    0.045
 cp_fm_redistribute_end              92  8.1    0.023    0.044    0.023    0.044
 cp_fm_symm                          86  7.0    0.038    0.043    0.038    0.043
 dos_pdos_ldos                        1  5.0    0.000    0.000    0.031    0.043
 dbt_tas_replicate_alltoall         250 15.5    0.000    0.000    0.033    0.042
 scf_post_calculation_gpw             1  3.0    0.000    0.000    0.042    0.042
 write_available_results              1  4.0    0.000    0.000    0.042    0.042
 write_mo_free_results                1  5.0    0.004    0.005    0.042    0.042
 dbt_tas_merge_communicate_buff     146 15.2    0.000    0.001    0.019    0.041
 mp_irecv_dm3                      3144 11.5    0.014    0.041    0.014    0.041
 dbcsr_iterator_start             25202  9.3    0.023    0.031    0.027    0.040
 mp_irecv_dv                      20761 13.0    0.012    0.040    0.012    0.040
 integrate_four_center_getP          87 10.0    0.006    0.007    0.037    0.040
 dbcsr_merge_all                   4604 12.4    0.017    0.031    0.023    0.040
 sort_shells                          4  9.0    0.029    0.039    0.029    0.039
 mp_bcast_i_src                     120  7.0    0.032    0.039    0.032    0.039
 get_l_sq_wghts_cos_tf_t_to_w         1  8.0    0.035    0.038    0.035    0.038
 dbt_tas_reshape_buffer_obtain      497 15.6    0.026    0.029    0.034    0.038
 dbt_tas_mp_comm                    198 12.9    0.000    0.001    0.036    0.037
 get_l_sq_wghts_sin_tf_t_to_w         1  8.0    0.034    0.036    0.034    0.036
 mp_bcast_dv                       1577  9.0    0.029    0.036    0.029    0.036
 mixing_init                          1  5.0    0.027    0.036    0.036    0.036
 dbt_tas_copy                       329 13.6    0.019    0.023    0.029    0.034
 rs_scatter_matrices                 87  7.0    0.001    0.001    0.033    0.034
 get_l_sq_wghts_cos_tf_w_to_t         1  8.0    0.029    0.030    0.031    0.033
 hfx_load_balance_redist              1 12.0    0.003    0.003    0.032    0.033
 dbm_reserve_blocks                2389 15.8    0.025    0.032    0.025    0.032
 mp_sum_i                           556 14.0    0.030    0.031    0.030    0.031
 dbt_tas_reserve_blocks_index      1993 14.8    0.002    0.002    0.024    0.030
 dbcsr_work_create                 5406 11.3    0.009    0.020    0.014    0.030
 make_images                        172 10.0    0.004    0.005    0.027    0.028
 xc_pw_smooth                        86 10.0    0.000    0.000    0.026    0.027
 offload_free_buffer                 95  8.5    0.017    0.027    0.017    0.027
 mp_maxloc_dv                      1625  1.0    0.022    0.027    0.022    0.027
 build_3c_integrals_put_dbcsr      2400 10.6    0.008    0.027    0.008    0.027
 dbt_nd_mp_comm                     152 10.0    0.000    0.000    0.025    0.026
 dbt_tas_reshape_buffer_fill        497 15.6    0.018    0.026    0.018    0.026
 mp_isendrecv_lv                    158 13.0    0.001    0.025    0.001    0.025
 dbt_tas_reshape_alltoall           497 15.6    0.000    0.000    0.023    0.025
 dbt_tas_replicate_communicate_     250 15.5    0.001    0.001    0.018    0.025
 mp_bcast_am_src                     30  7.0    0.017    0.024    0.018    0.025
 pw_grid_remap                        4  8.0    0.003    0.004    0.020    0.024
 global_matrix_to_local_matrix      152  9.0    0.001    0.001    0.021    0.024
 dbcsr_crop_matrix                  516 10.0    0.002    0.002    0.021    0.024
 dbcsr_copy                        7196  7.7    0.012    0.013    0.020    0.022
 delete_unnecessary_files             1  8.0    0.000    0.000    0.000    0.022
 safe_delete                         60  9.0    0.000    0.022    0.000    0.022
 mp_sum_im3                           6  9.5    0.017    0.022    0.017    0.022
 dbcsr_work_destroy_all            5406 12.2    0.007    0.015    0.010    0.022
 RI_2c_integral_mat                   4  9.8    0.000    0.000    0.020    0.022
 dbcsr_create_new                 11176  9.4    0.015    0.016    0.020    0.021
 write_mo_set_to_restart             86  5.0    0.001    0.015    0.016    0.021
 local_dbt_to_global_mat             91  8.0    0.000    0.000    0.019    0.021
 dbcsr_iterator_stop              25202  9.3    0.012    0.017    0.015    0.020
 hirshfeld_integration                1  6.0    0.001    0.005    0.019    0.019
 mp_bcast_b_src                     178  7.6    0.015    0.019    0.015    0.019
 compute_MinvVsqrt_Vsqrt              1  9.0    0.000    0.000    0.019    0.019
 mp_bcast_av                        813  1.0    0.008    0.011    0.015    0.018
 dbcsr_copy_submatrix               516 11.0    0.002    0.002    0.016    0.017
 mp_sum_im                           12  9.0    0.013    0.017    0.013    0.017
 make_images_sizes                  172 11.0    0.000    0.000    0.014    0.017
 mp_alltoall_i44                    172 12.0    0.014    0.017    0.014    0.017
 calculate_hirshfeld_normalizat       1  6.0    0.001    0.005    0.016    0.017
 compute_max_radius                   1  6.0    0.014    0.017    0.014    0.017
 local_matrix_to_global_matrix       91  9.0    0.000    0.000    0.013    0.016
 dbm_add                            396 14.4    0.011    0.016    0.011    0.016
 create_and_init_bs_env               1  5.0    0.000    0.000    0.016    0.016
 write_mo_set_low                     5  6.0    0.000    0.000    0.015    0.015
 cp_fm_redistribute_start            92  8.1    0.004    0.004    0.011    0.015
 dbt_tas_reserve_blocks_templat     725 14.2    0.002    0.002    0.012    0.015
 restraint_control                    1  2.0    0.000    0.000    0.014    0.015
 write_dos_pdos                       2  6.0    0.000    0.015    0.000    0.015
 dbcsr_data_release               83333 11.4    0.009    0.014    0.009    0.014
 dbcsr_data_new                   52774 11.7    0.009    0.014    0.009    0.014
 pw_grid_assign                       4  8.0    0.013    0.013    0.014    0.014
 dbt_reserve_blocks_index           771 12.3    0.001    0.001    0.011    0.014
 external_control                    86  5.0    0.000    0.010    0.013    0.013
 mp_recv_dv                        2454 10.9    0.000    0.013    0.000    0.013
 alloc_block_3c                     139 10.5    0.003    0.006    0.009    0.013
 dbcsr_filter_anytype               731  9.8    0.002    0.002    0.011    0.013
 mp_comm_free                      6035 13.4    0.012    0.013    0.012    0.013
 cp_fm_uplo_to_full                  95  9.1    0.010    0.013    0.010    0.013
 mp_bcast_i                        1936 12.5    0.009    0.012    0.009    0.012
 dbt_crop                           194 11.0    0.006    0.008    0.010    0.012
 mp_min_d                             1  6.0    0.009    0.011    0.009    0.011
 diagonalize_ks_matrix                1  6.0    0.000    0.000    0.011    0.011
 cp_fm_geeig_canon                    1  7.0    0.000    0.000    0.011    0.011
 create_fast_row_vec_access        3150  8.0    0.006    0.008    0.009    0.011
 -------------------------------------------------------------------------------

 The number of warnings for this run is : 1
 
 -------------------------------------------------------------------------------
  **** **** ******  **  PROGRAM ENDED AT                 2025-05-29 05:39:56.321
 ***** ** ***  *** **   PROGRAM RAN ON                                  n2cn0183
 **    ****   ******    PROGRAM RAN BY                                  metdyn02
 ***** **    ** ** **   PROGRAM PROCESS ID                               1665730
  **** **  *******  **  PROGRAM STOPPED IN /scratch/hpc-prf-metdyn/metdyn02_Remi
                                           /10_MOL/05_MOL_low_scal/05_MOL/aUKBqs
                                           EOTmq69kFe5R_nOg/5k_set_final_qzvp/AB
                                           EGEU/SZV/1e-5/3.0
