 DBCSR| CPU Multiplication driver                                           BLAS (U)
 DBCSR| Multrec recursion limit                                              512 (U)
 DBCSR| Multiplication stack size                                           1000 (D)
 DBCSR| Maximum elements for images                                    UNLIMITED (U)
 DBCSR| Multiplicative factor virtual images                                   1 (U)
 DBCSR| Use multiplication densification                                       T (D)
 DBCSR| Multiplication size stacks                                             3 (U)
 DBCSR| Use memory pool for CPU allocation                                     F (U)
 DBCSR| Number of 3D layers                                               SINGLE (U)
 DBCSR| Use MPI memory allocation                                              F (U)
 DBCSR| Use RMA algorithm                                                      F (U)
 DBCSR| Use Communication thread                                               T (U)
 DBCSR| Communication thread load                                             75 (D)
 DBCSR| MPI: My process id                                                     0
 DBCSR| MPI: Number of processes                                             216
 DBCSR| OMP: Current number of threads                                         4
 DBCSR| OMP: Max number of threads                                             4
 DBCSR| Split modifier for TAS multiplication algorithm                  1.0E+00 (U)


  **** **** ******  **  PROGRAM STARTED AT               2025-04-02 09:37:54.265
 ***** ** ***  *** **   PROGRAM STARTED ON                          i08r06c03s09
 **    ****   ******    PROGRAM STARTED BY                               di38fab
 ***** **    ** ** **   PROGRAM PROCESS ID                               1101912
  **** **  *******  **  PROGRAM STARTED IN /hppfs/scratch/04/di38fab/07_MOL_non_
                                           aug/05_MOL_non_aug/05_MOL/aUKBqsEOTmq
                                           69kFe5R_nOg/5k_set_final_qzvp/VEVCEF/
                                           cc-pVTZ/TDDFT

 CP2K| version string:                 CP2K version 2025.1 (Development Version)
 CP2K| source code revision number:                                  git:d2e611a
 CP2K| cp2kflags: omp libint fftw3 libxc parallel scalapack max_contr=4         
 CP2K| is freely available from                            https://www.cp2k.org/
 CP2K| Program compiled at                       Thu 06 Mar 2025 05:09:20 PM CET
 CP2K| Program compiled on                                               login02
 CP2K| Program compiled for                                        Supermuc-foss
 CP2K| Data directory path                  /hppfs/work/pn36zo/di38fab/cp2k/data
 CP2K| Input file name                                                    GW.inp

 GLOBAL| Force Environment number                                              1
 GLOBAL| Basis set file name            /hppfs/scratch/04/di38fab/04_TMD/BASIS_A
 GLOBAL| Potential file name            /hppfs/work/pn36zo/di38fab/cp2k/data/ALL
 GLOBAL| MM Potential file name                                     MM_POTENTIAL
 GLOBAL| Coordinate file name                                      __STD_INPUT__
 GLOBAL| Method name                                                        CP2K
 GLOBAL| Project name                                                       MoS2
 GLOBAL| Run type                                                         ENERGY
 GLOBAL| FFT library                                                       FFTW3
 GLOBAL| Diagonalization library                                       ScaLAPACK
 GLOBAL| DGEMM library                                                      BLAS
 GLOBAL| Orthonormality check for eigenvectors                          DISABLED
 GLOBAL| Matrix multiplication library                                 ScaLAPACK
 GLOBAL| All-to-all communication in single precision                          F
 GLOBAL| FFTs using library dependent lengths                                  F
 GLOBAL| Grid backend                                                       AUTO
 GLOBAL| Global print level                                               MEDIUM
 GLOBAL| MPI I/O enabled                                                       T
 GLOBAL| Total number of message passing processes                           216
 GLOBAL| Number of threads for this process                                    4
 GLOBAL| This output is from process                                           0
 GLOBAL| OpenMP stack size per thread (OMP_STACKSIZE)                    default
 GLOBAL| CPU model name             Intel(R) Xeon(R) Platinum 8174 CPU @ 3.10GHz

 MEMORY| system memory details [Kb]
 MEMORY|                        rank 0           min           max       average
 MEMORY| MemTotal             98436664      98436660      98436708      98436670
 MEMORY| MemFree              83606604      83606604      84082804      83909487
 MEMORY| Buffers                     0             0             0             0
 MEMORY| Cached                2408536       2392788       2428284       2403666
 MEMORY| Slab                  1233472       1227712       1258068       1240263
 MEMORY| SReclaimable           278204        271384        284572        277193
 MEMORY| MemLikelyFree        86293344      86293344      86772416      86590347


 *** Fundamental physical constants (SI units) ***

 *** Literature: B. J. Mohr and B. N. Taylor,
 ***             CODATA recommended values of the fundamental physical
 ***             constants: 2006, Web Version 5.1
 ***             http://physics.nist.gov/constants

 Speed of light in vacuum [m/s]                             2.99792458000000E+08
 Magnetic constant or permeability of vacuum [N/A**2]       1.25663706143592E-06
 Electric constant or permittivity of vacuum [F/m]          8.85418781762039E-12
 Planck constant (h) [J*s]                                  6.62606896000000E-34
 Planck constant (h-bar) [J*s]                              1.05457162825177E-34
 Elementary charge [C]                                      1.60217648700000E-19
 Electron mass [kg]                                         9.10938215000000E-31
 Electron g factor [ ]                                     -2.00231930436220E+00
 Proton mass [kg]                                           1.67262163700000E-27
 Fine-structure constant                                    7.29735253760000E-03
 Rydberg constant [1/m]                                     1.09737315685270E+07
 Avogadro constant [1/mol]                                  6.02214179000000E+23
 Boltzmann constant [J/K]                                   1.38065040000000E-23
 Atomic mass unit [kg]                                      1.66053878200000E-27
 Bohr radius [m]                                            5.29177208590000E-11

 *** Conversion factors ***

 [u] -> [a.u.]                                              1.82288848426455E+03
 [Angstrom] -> [Bohr] = [a.u.]                              1.88972613288564E+00
 [a.u.] = [Bohr] -> [Angstrom]                              5.29177208590000E-01
 [a.u.] -> [s]                                              2.41888432650478E-17
 [a.u.] -> [fs]                                             2.41888432650478E-02
 [a.u.] -> [J]                                              4.35974393937059E-18
 [a.u.] -> [N]                                              8.23872205491840E-08
 [a.u.] -> [K]                                              3.15774647902944E+05
 [a.u.] -> [kJ/mol]                                         2.62549961709828E+03
 [a.u.] -> [kcal/mol]                                       6.27509468713739E+02
 [a.u.] -> [Pa]                                             2.94210107994716E+13
 [a.u.] -> [bar]                                            2.94210107994716E+08
 [a.u.] -> [atm]                                            2.90362800883016E+08
 [a.u.] -> [eV]                                             2.72113838565563E+01
 [a.u.] -> [Hz]                                             6.57968392072181E+15
 [a.u.] -> [1/cm] (wave numbers)                            2.19474631370540E+05
 [a.u./Bohr**2] -> [1/cm]                                   5.14048714338585E+03
 

 CELL_TOP| Volume [angstrom^3]:                                     27000.000000
 CELL_TOP| Vector a [angstrom    30.000     0.000     0.000   |a| =    30.000000
 CELL_TOP| Vector b [angstrom     0.000    30.000     0.000   |b| =    30.000000
 CELL_TOP| Vector c [angstrom     0.000     0.000    30.000   |c| =    30.000000
 CELL_TOP| Angle (b,c), alpha [degree]:                                90.000000
 CELL_TOP| Angle (a,c), beta  [degree]:                                90.000000
 CELL_TOP| Angle (a,b), gamma [degree]:                                90.000000
 CELL_TOP| Numerically orthorhombic:                                         YES
 CELL_TOP| Periodicity                                                      NONE

 GENERATE|  Preliminary Number of Bonds generated:                             0
 GENERATE|  Achieved consistency in connectivity generation.

 CELL| Volume [angstrom^3]:                                         27000.000000
 CELL| Vector a [angstrom]:      30.000     0.000     0.000   |a| =    30.000000
 CELL| Vector b [angstrom]:       0.000    30.000     0.000   |b| =    30.000000
 CELL| Vector c [angstrom]:       0.000     0.000    30.000   |c| =    30.000000
 CELL| Angle (b,c), alpha [degree]:                                    90.000000
 CELL| Angle (a,c), beta  [degree]:                                    90.000000
 CELL| Angle (a,b), gamma [degree]:                                    90.000000
 CELL| Numerically orthorhombic:                                             YES
 CELL| Periodicity                                                          NONE

 CELL_REF| Volume [angstrom^3]:                                     27000.000000
 CELL_REF| Vector a [angstrom    30.000     0.000     0.000   |a| =    30.000000
 CELL_REF| Vector b [angstrom     0.000    30.000     0.000   |b| =    30.000000
 CELL_REF| Vector c [angstrom     0.000     0.000    30.000   |c| =    30.000000
 CELL_REF| Angle (b,c), alpha [degree]:                                90.000000
 CELL_REF| Angle (a,c), beta  [degree]:                                90.000000
 CELL_REF| Angle (a,b), gamma [degree]:                                90.000000
 CELL_REF| Numerically orthorhombic:                                         YES
 CELL_REF| Periodicity                                                      NONE

 *******************************************************************************
 *******************************************************************************
 **                                                                           **
 **     #####                         ##              ##                      **
 **    ##   ##            ##          ##              ##                      **
 **   ##     ##                       ##            ######                    **
 **   ##     ##  ##   ##  ##   #####  ##  ##   ####   ##    #####    #####    **
 **   ##     ##  ##   ##  ##  ##      ## ##   ##      ##   ##   ##  ##   ##   **
 **   ##  ## ##  ##   ##  ##  ##      ####     ###    ##   ######   ######    **
 **    ##  ###   ##   ##  ##  ##      ## ##      ##   ##   ##       ##        **
 **     #######   #####   ##   #####  ##  ##  ####    ##    #####   ##        **
 **           ##                                                    ##        **
 **                                                                           **
 **                                                ... make the atoms dance   **
 **                                                                           **
 **            Copyright (C) by CP2K developers group (2000-2025)             **
 **                      J. Chem. Phys. 152, 194103 (2020)                    **
 **                                                                           **
 *******************************************************************************

 DFT| Spin restricted Kohn-Sham (RKS) calculation                            RKS
 DFT| Multiplicity                                                             1
 DFT| Number of spin states                                                    1
 DFT| Charge                                                                   0
 DFT| Self-interaction correction (SIC)                                       NO
 DFT| Cutoffs: density                                              1.000000E-10
 DFT|          gradient                                             1.000000E-10
 DFT|          tau                                                  1.000000E-10
 DFT|          cutoff_smoothing_range                               0.000000E+00
 DFT| XC density smoothing                                                  NONE
 DFT| XC derivatives                                                          PW

 FUNCTIONAL| PBE:
 FUNCTIONAL| J.P.Perdew, K.Burke, M.Ernzerhof, Phys. Rev. Letter, vol. 77, n 18,
 FUNCTIONAL|  pp. 3865-3868, (1996)sx=0.750sc=1.000{spin unpolarized}           


 QS| Method:                                                                GAPW
 QS| Density plane wave grid type                        NON-SPHERICAL FULLSPACE
 QS| Number of grid levels:                                                    4
 QS| Density cutoff [a.u.]:                                                250.0
 QS| Multi grid cutoff [a.u.]: 1) grid level                               250.0
 QS|                           2) grid level                                83.3
 QS|                           3) grid level                                27.8
 QS|                           4) grid level                                 9.3
 QS| Grid level progression factor:                                          3.0
 QS| Relative density cutoff [a.u.]:                                        50.0
 QS| Interaction thresholds: eps_pgf_orb:                                1.0E-12
 QS|                         eps_filter_matrix:                          0.0E+00
 QS|                         eps_core_charge:                            1.0E-14
 QS|                         eps_rho_gspace:                             1.0E-12
 QS|                         eps_rho_rspace:                             1.0E-12
 QS|                         eps_gvg_rspace:                             1.0E-06
 QS|                         eps_ppl:                                    1.0E-02
 QS|                         eps_ppnl:                                   1.0E-08
 QS| GAPW|      One center basis from orbital basis primitives
 QS| GAPW|                   eps_fit:                                    1.0E-04
 QS| GAPW|                   eps_iso:                                    1.0E-12
 QS| GAPW|                   eps_svd:                                    1.0E-08
 QS| GAPW|                   eps_cpc:                                    1.0E-12
 QS| GAPW|   atom-r-grid: quadrature:                                     GC_LOG
 QS| GAPW|      atom-s-grid:  max l :                                          6
 QS| GAPW|      max_l_rho0 :                                                   2


 ATOMIC KIND INFORMATION

  1. Atomic kind: O                                     Number of atoms:       2

     Orbital Basis Set                                                   cc-pVTZ

       Number of orbital shell sets:                                           4
       Number of orbital shells:                                              10
       Number of primitive Cartesian functions:                               18
       Number of Cartesian basis functions:                                   35
       Number of spherical basis functions:                                   30
       Norm type:                                                              2

       Normalised Cartesian orbitals:

                        Set   Shell   Orbital            Exponent    Coefficient

                          1       1    1px              34.460000       0.000000
                                                         7.749000       0.000000
                                                         2.280000       0.000000
                                                         0.715600       0.938162
                                                         0.214000       0.000000
                          1       1    1py              34.460000       0.000000
                                                         7.749000       0.000000
                                                         2.280000       0.000000
                                                         0.715600       0.938162
                                                         0.214000       0.000000
                          1       1    1pz              34.460000       0.000000
                                                         7.749000       0.000000
                                                         2.280000       0.000000
                                                         0.715600       0.938162
                                                         0.214000       0.000000

                          1       2    2px              34.460000       1.895593
                                                         7.749000       1.838088
                                                         2.280000       1.239963
                                                         0.715600       0.460662
                                                         0.214000       0.069780
                          1       2    2py              34.460000       1.895593
                                                         7.749000       1.838088
                                                         2.280000       1.239963
                                                         0.715600       0.460662
                                                         0.214000       0.069780
                          1       2    2pz              34.460000       1.895593
                                                         7.749000       1.838088
                                                         2.280000       1.239963
                                                         0.715600       0.460662
                                                         0.214000       0.069780

                          1       3    3px              34.460000       0.000000
                                                         7.749000       0.000000
                                                         2.280000       0.000000
                                                         0.715600       0.000000
                                                         0.214000       0.207471
                          1       3    3py              34.460000       0.000000
                                                         7.749000       0.000000
                                                         2.280000       0.000000
                                                         0.715600       0.000000
                                                         0.214000       0.207471
                          1       3    3pz              34.460000       0.000000
                                                         7.749000       0.000000
                                                         2.280000       0.000000
                                                         0.715600       0.000000
                                                         0.214000       0.207471

                          2       1    1s            15330.000000       0.498804
                                                      2299.000000       0.929707
                                                       522.400000       1.576475
                                                       147.300000       2.386068
                                                        47.550000       2.977116
                                                        16.760000       2.556946
                                                         6.207000       0.981661
                                                         1.752000       0.046374
                                                         0.688200      -0.004391
                                                         0.238400       0.000579

                          2       2    2s            15330.000000       0.000000
                                                      2299.000000       0.000000
                                                       522.400000       0.000000
                                                       147.300000       0.000000
                                                        47.550000       0.000000
                                                        16.760000       0.000000
                                                         6.207000       0.000000
                                                         1.752000       1.085327
                                                         0.688200       0.000000
                                                         0.238400       0.000000

                          2       3    3s            15330.000000      -0.112918
                                                      2299.000000      -0.211781
                                                       522.400000      -0.361041
                                                       147.300000      -0.564236
                                                        47.550000      -0.754491
                                                        16.760000      -0.805621
                                                         6.207000      -0.492541
                                                         1.752000       0.174666
                                                         0.688200       0.324949
                                                         0.238400       0.092100

                          2       4    4s            15330.000000       0.000000
                                                      2299.000000       0.000000
                                                       522.400000       0.000000
                                                       147.300000       0.000000
                                                        47.550000       0.000000
                                                        16.760000       0.000000
                                                         6.207000       0.000000
                                                         1.752000       0.000000
                                                         0.688200       0.000000
                                                         0.238400       0.243159

                          3       1    1dx2              2.314000       7.145709
                                                         0.645000       0.000000
                          3       1    1dxy              2.314000      12.376731
                                                         0.645000       0.000000
                          3       1    1dxz              2.314000      12.376731
                                                         0.645000       0.000000
                          3       1    1dy2              2.314000       7.145709
                                                         0.645000       0.000000
                          3       1    1dyz              2.314000      12.376731
                                                         0.645000       0.000000
                          3       1    1dz2              2.314000       7.145709
                                                         0.645000       0.000000

                          3       2    2dx2              2.314000       0.000000
                                                         0.645000       0.764080
                          3       2    2dxy              2.314000       0.000000
                                                         0.645000       1.323426
                          3       2    2dxz              2.314000       0.000000
                                                         0.645000       1.323426
                          3       2    2dy2              2.314000       0.000000
                                                         0.645000       0.764080
                          3       2    2dyz              2.314000       0.000000
                                                         0.645000       1.323426
                          3       2    2dz2              2.314000       0.000000
                                                         0.645000       0.764080

                          4       1    1fx3              1.428000       3.281655
                          4       1    1fx2y             1.428000       7.338004
                          4       1    1fx2z             1.428000       7.338004
                          4       1    1fxy2             1.428000       7.338004
                          4       1    1fxyz             1.428000      12.709795
                          4       1    1fxz2             1.428000       7.338004
                          4       1    1fy3              1.428000       3.281655
                          4       1    1fy2z             1.428000       7.338004
                          4       1    1fyz2             1.428000       7.338004
                          4       1    1fz3              1.428000       3.281655

     RI Auxiliary Basis Set                                        cc-pVTZ-RIFIT

       Number of orbital shell sets:                                          23
       Number of orbital shells:                                              23
       Number of primitive Cartesian functions:                               23
       Number of Cartesian basis functions:                                  101
       Number of spherical basis functions:                                   81
       Norm type:                                                              2

       Normalised Cartesian orbitals:

                        Set   Shell   Orbital            Exponent    Coefficient

                          1       1    1s                0.365053       0.334716

                          2       1    1dx2              0.503534       0.495404
                          2       1    1dxy              0.503534       0.858066
                          2       1    1dxz              0.503534       0.858066
                          2       1    1dy2              0.503534       0.495404
                          2       1    1dyz              0.503534       0.858066
                          2       1    1dz2              0.503534       0.495404

                          3       1    1px               0.518456       0.627090
                          3       1    1py               0.518456       0.627090
                          3       1    1pz               0.518456       0.627090

                          4       1    1s                0.812507       0.609930

                          5       1    1px               0.974192       1.379577
                          5       1    1py               0.974192       1.379577
                          5       1    1pz               0.974192       1.379577

                          6       1    1fx3              1.089407       1.784975
                          6       1    1fx2y             1.089407       3.991326
                          6       1    1fx2z             1.089407       3.991326
                          6       1    1fxy2             1.089407       3.991326
                          6       1    1fxyz             1.089407       6.913179
                          6       1    1fxz2             1.089407       3.991326
                          6       1    1fy3              1.089407       1.784975
                          6       1    1fy2z             1.089407       3.991326
                          6       1    1fyz2             1.089407       3.991326
                          6       1    1fz3              1.089407       1.784975

                          7       1    1dx2              1.162446       2.141962
                          7       1    1dxy              1.162446       3.709987
                          7       1    1dxz              1.162446       3.709987
                          7       1    1dy2              1.162446       2.141962
                          7       1    1dyz              1.162446       3.709987
                          7       1    1dz2              1.162446       2.141962

                          8       1    1s                1.333156       0.884242

                          9       1    1fx3              2.151279       8.251294
                          9       1    1fx2y             2.151279      18.450455
                          9       1    1fx2z             2.151279      18.450455
                          9       1    1fxy2             2.151279      18.450455
                          9       1    1fxyz             2.151279      31.957126
                          9       1    1fxz2             2.151279      18.450455
                          9       1    1fy3              2.151279       8.251294
                          9       1    1fy2z             2.151279      18.450455
                          9       1    1fyz2             2.151279      18.450455
                          9       1    1fz3              2.151279       8.251294

                         10       1    1px               2.167884       3.749602
                         10       1    1py               2.167884       3.749602
                         10       1    1pz               2.167884       3.749602

                         11       1    1gx4              2.327096      11.354683
                         11       1    1gx3y             2.327096      30.041666
                         11       1    1gx3z             2.327096      30.041666
                         11       1    1gx2y2            2.327096      38.783625
                         11       1    1gx2yz            2.327096      67.175208
                         11       1    1gx2z2            2.327096      38.783625
                         11       1    1gxy3             2.327096      30.041666
                         11       1    1gxy2z            2.327096      67.175208
                         11       1    1gxyz2            2.327096      67.175208
                         11       1    1gxz3             2.327096      30.041666
                         11       1    1gy4              2.327096      11.354683
                         11       1    1gy3z             2.327096      30.041666
                         11       1    1gy2z2            2.327096      38.783625
                         11       1    1gyz3             2.327096      30.041666
                         11       1    1gz4              2.327096      11.354683

                         12       1    1dx2              2.955262      10.963584
                         12       1    1dxy              2.955262      18.989484
                         12       1    1dxz              2.955262      18.989484
                         12       1    1dy2              2.955262      10.963584
                         12       1    1dyz              2.955262      18.989484
                         12       1    1dz2              2.955262      10.963584

                         13       1    1s                3.020208       1.632818

                         14       1    1px               3.913772       7.846654
                         14       1    1py               3.913772       7.846654
                         14       1    1pz               3.913772       7.846654

                         15       1    1fx3              4.687385      47.593571
                         15       1    1fx2y             4.687385     106.422459
                         15       1    1fx2z             4.687385     106.422459
                         15       1    1fxy2             4.687385     106.422459
                         15       1    1fxyz             4.687385     184.329107
                         15       1    1fxz2             4.687385     106.422459
                         15       1    1fy3              4.687385      47.593571
                         15       1    1fy2z             4.687385     106.422459
                         15       1    1fyz2             4.687385     106.422459
                         15       1    1fz3              4.687385      47.593571

                         16       1    1dx2              5.379933      31.280160
                         16       1    1dxy              5.379933      54.178826
                         16       1    1dxz              5.379933      54.178826
                         16       1    1dy2              5.379933      31.280160
                         16       1    1dyz              5.379933      54.178826
                         16       1    1dz2              5.379933      31.280160

                         17       1    1s                8.416559       3.521770

                         18       1    1px              15.021796      42.154351
                         18       1    1py              15.021796      42.154351
                         18       1    1pz              15.021796      42.154351

                         19       1    1dx2             15.907733     208.556618
                         19       1    1dxy             15.907733     361.230658
                         19       1    1dxz             15.907733     361.230658
                         19       1    1dy2             15.907733     208.556618
                         19       1    1dyz             15.907733     361.230658
                         19       1    1dz2             15.907733     208.556618

                         20       1    1s               24.573835       7.866197

                         21       1    1px              52.854386     203.138098
                         21       1    1py              52.854386     203.138098
                         21       1    1pz              52.854386     203.138098

                         22       1    1s               76.693315      18.470482

                         23       1    1s              366.545315      59.704332

       Atomic covalent radius [Angstrom]:                                  0.730

       Atomic van der Waals radius [Angstrom]:                             1.520

     The atoms of this atomic kind are PAW atoms (GAPW):
       Hard Gaussian function radius:                                      1.512
       Rho0 radius:                                                        1.512
       Maximum GTO radius used for PAW projector construction:            24.566

     GAPW Soft Basis Set                                            cc-pVTZ_soft

       Number of orbital shell sets:                                           4
       Number of orbital shells:                                              10
       Number of primitive Cartesian functions:                                9
       Number of Cartesian basis functions:                                   35
       Number of spherical basis functions:                                   30
       Norm type:                                                              2

       Normalised Cartesian orbitals:

                        Set   Shell   Orbital            Exponent    Coefficient

                          1       1    1px               2.280000       0.000000
                                                         0.715600       0.938162
                                                         0.214000       0.000000
                          1       1    1py               2.280000       0.000000
                                                         0.715600       0.938162
                                                         0.214000       0.000000
                          1       1    1pz               2.280000       0.000000
                                                         0.715600       0.938162
                                                         0.214000       0.000000

                          1       2    2px               2.280000       1.239963
                                                         0.715600       0.460662
                                                         0.214000       0.069780
                          1       2    2py               2.280000       1.239963
                                                         0.715600       0.460662
                                                         0.214000       0.069780
                          1       2    2pz               2.280000       1.239963
                                                         0.715600       0.460662
                                                         0.214000       0.069780

                          1       3    3px               2.280000       0.000000
                                                         0.715600       0.000000
                                                         0.214000       0.207471
                          1       3    3py               2.280000       0.000000
                                                         0.715600       0.000000
                                                         0.214000       0.207471
                          1       3    3pz               2.280000       0.000000
                                                         0.715600       0.000000
                                                         0.214000       0.207471

                          2       1    1s                1.752000       0.046374
                                                         0.688200      -0.004391
                                                         0.238400       0.000579

                          2       2    2s                1.752000       1.085327
                                                         0.688200       0.000000
                                                         0.238400       0.000000

                          2       3    3s                1.752000       0.174666
                                                         0.688200       0.324949
                                                         0.238400       0.092100

                          2       4    4s                1.752000       0.000000
                                                         0.688200       0.000000
                                                         0.238400       0.243159

                          3       1    1dx2              2.314000       7.145709
                                                         0.645000       0.000000
                          3       1    1dxy              2.314000      12.376731
                                                         0.645000       0.000000
                          3       1    1dxz              2.314000      12.376731
                                                         0.645000       0.000000
                          3       1    1dy2              2.314000       7.145709
                                                         0.645000       0.000000
                          3       1    1dyz              2.314000      12.376731
                                                         0.645000       0.000000
                          3       1    1dz2              2.314000       7.145709
                                                         0.645000       0.000000

                          3       2    2dx2              2.314000       0.000000
                                                         0.645000       0.764080
                          3       2    2dxy              2.314000       0.000000
                                                         0.645000       1.323426
                          3       2    2dxz              2.314000       0.000000
                                                         0.645000       1.323426
                          3       2    2dy2              2.314000       0.000000
                                                         0.645000       0.764080
                          3       2    2dyz              2.314000       0.000000
                                                         0.645000       1.323426
                          3       2    2dz2              2.314000       0.000000
                                                         0.645000       0.764080

                          4       1    1fx3              1.428000       3.281655
                          4       1    1fx2y             1.428000       7.338004
                          4       1    1fx2z             1.428000       7.338004
                          4       1    1fxy2             1.428000       7.338004
                          4       1    1fxyz             1.428000      12.709795
                          4       1    1fxz2             1.428000       7.338004
                          4       1    1fy3              1.428000       3.281655
                          4       1    1fy2z             1.428000       7.338004
                          4       1    1fyz2             1.428000       7.338004
                          4       1    1fz3              1.428000       3.281655

     AE Potential information for                                            ALL

       Description:                                       All-electron potential
                                          Krack, Parrinello, PCCP 2, 2105 (2000)

       Gaussian exponent of the core charge distribution:               8.154466
       Electronic configuration (s p d ...):                           4   4   0

  2. Atomic kind: N                                     Number of atoms:       2

     Orbital Basis Set                                                   cc-pVTZ

       Number of orbital shell sets:                                           4
       Number of orbital shells:                                              10
       Number of primitive Cartesian functions:                               18
       Number of Cartesian basis functions:                                   35
       Number of spherical basis functions:                                   30
       Norm type:                                                              2

       Normalised Cartesian orbitals:

                        Set   Shell   Orbital            Exponent    Coefficient

                          1       1    1px              26.630000       0.000000
                                                         5.948000       0.000000
                                                         1.742000       0.000000
                                                         0.555000       0.682820
                                                         0.172500       0.000000
                          1       1    1py              26.630000       0.000000
                                                         5.948000       0.000000
                                                         1.742000       0.000000
                                                         0.555000       0.682820
                                                         0.172500       0.000000
                          1       1    1pz              26.630000       0.000000
                                                         5.948000       0.000000
                                                         1.742000       0.000000
                                                         0.555000       0.682820
                                                         0.172500       0.000000

                          1       2    2px              26.630000       1.264982
                                                         5.948000       1.215000
                                                         1.742000       0.852042
                                                         0.555000       0.340377
                                                         0.172500       0.053406
                          1       2    2py              26.630000       1.264982
                                                         5.948000       1.215000
                                                         1.742000       0.852042
                                                         0.555000       0.340377
                                                         0.172500       0.053406
                          1       2    2pz              26.630000       1.264982
                                                         5.948000       1.215000
                                                         1.742000       0.852042
                                                         0.555000       0.340377
                                                         0.172500       0.053406

                          1       3    3px              26.630000       0.000000
                                                         5.948000       0.000000
                                                         1.742000       0.000000
                                                         0.555000       0.000000
                                                         0.172500       0.158462
                          1       3    3py              26.630000       0.000000
                                                         5.948000       0.000000
                                                         1.742000       0.000000
                                                         0.555000       0.000000
                                                         0.172500       0.158462
                          1       3    3pz              26.630000       0.000000
                                                         5.948000       0.000000
                                                         1.742000       0.000000
                                                         0.555000       0.000000
                                                         0.172500       0.158462

                          2       1    1s            11420.000000       0.411776
                                                      1712.000000       0.767284
                                                       389.300000       1.297670
                                                       110.000000       1.954219
                                                        35.570000       2.419449
                                                        12.540000       2.058842
                                                         4.644000       0.783427
                                                         1.293000       0.035658
                                                         0.511800      -0.003669
                                                         0.178700       0.000467

                          2       2    2s            11420.000000       0.000000
                                                      1712.000000       0.000000
                                                       389.300000       0.000000
                                                       110.000000       0.000000
                                                        35.570000       0.000000
                                                        12.540000       0.000000
                                                         4.644000       0.000000
                                                         1.293000       0.864190
                                                         0.511800       0.000000
                                                         0.178700       0.000000

                          2       3    3s            11420.000000      -0.090544
                                                      1712.000000      -0.169770
                                                       389.300000      -0.288829
                                                       110.000000      -0.448521
                                                        35.570000      -0.595214
                                                        12.540000      -0.627274
                                                         4.644000      -0.388950
                                                         1.293000       0.131196
                                                         0.511800       0.258729
                                                         0.178700       0.075898

                          2       4    4s            11420.000000       0.000000
                                                      1712.000000       0.000000
                                                       389.300000       0.000000
                                                       110.000000       0.000000
                                                        35.570000       0.000000
                                                        12.540000       0.000000
                                                         4.644000       0.000000
                                                         1.293000       0.000000
                                                         0.511800       0.000000
                                                         0.178700       0.195886

                          3       1    1dx2              1.654000       3.970513
                                                         0.469000       0.000000
                          3       1    1dxy              1.654000       6.877130
                                                         0.469000       0.000000
                          3       1    1dxz              1.654000       6.877130
                                                         0.469000       0.000000
                          3       1    1dy2              1.654000       3.970513
                                                         0.469000       0.000000
                          3       1    1dyz              1.654000       6.877130
                                                         0.469000       0.000000
                          3       1    1dz2              1.654000       3.970513
                                                         0.469000       0.000000

                          3       2    2dx2              1.654000       0.000000
                                                         0.469000       0.437484
                          3       2    2dxy              1.654000       0.000000
                                                         0.469000       0.757744
                          3       2    2dxz              1.654000       0.000000
                                                         0.469000       0.757744
                          3       2    2dy2              1.654000       0.000000
                                                         0.469000       0.437484
                          3       2    2dyz              1.654000       0.000000
                                                         0.469000       0.757744
                          3       2    2dz2              1.654000       0.000000
                                                         0.469000       0.437484

                          4       1    1fx3              1.093000       1.798249
                          4       1    1fx2y             1.093000       4.021007
                          4       1    1fx2z             1.093000       4.021007
                          4       1    1fxy2             1.093000       4.021007
                          4       1    1fxyz             1.093000       6.964588
                          4       1    1fxz2             1.093000       4.021007
                          4       1    1fy3              1.093000       1.798249
                          4       1    1fy2z             1.093000       4.021007
                          4       1    1fyz2             1.093000       4.021007
                          4       1    1fz3              1.093000       1.798249

     RI Auxiliary Basis Set                                        cc-pVTZ-RIFIT

       Number of orbital shell sets:                                          23
       Number of orbital shells:                                              23
       Number of primitive Cartesian functions:                               23
       Number of Cartesian basis functions:                                  101
       Number of spherical basis functions:                                   81
       Norm type:                                                              2

       Normalised Cartesian orbitals:

                        Set   Shell   Orbital            Exponent    Coefficient

                          1       1    1s                0.311588       0.297232

                          2       1    1px               0.373533       0.416247
                          2       1    1py               0.373533       0.416247
                          2       1    1pz               0.373533       0.416247

                          3       1    1dx2              0.419484       0.359883
                          3       1    1dxy              0.419484       0.623335
                          3       1    1dxz              0.419484       0.623335
                          3       1    1dy2              0.419484       0.359883
                          3       1    1dyz              0.419484       0.623335
                          3       1    1dz2              0.419484       0.359883

                          4       1    1s                0.766748       0.583982

                          5       1    1dx2              0.837683       1.207255
                          5       1    1dxy              0.837683       2.091027
                          5       1    1dxz              0.837683       2.091027
                          5       1    1dy2              0.837683       1.207255
                          5       1    1dyz              0.837683       2.091027
                          5       1    1dz2              0.837683       1.207255

                          6       1    1fx3              0.846776       1.012591
                          6       1    1fx2y             0.846776       2.264223
                          6       1    1fx2z             0.846776       2.264223
                          6       1    1fxy2             0.846776       2.264223
                          6       1    1fxyz             0.846776       3.921748
                          6       1    1fxz2             0.846776       2.264223
                          6       1    1fy3              0.846776       1.012591
                          6       1    1fy2z             0.846776       2.264223
                          6       1    1fyz2             0.846776       2.264223
                          6       1    1fz3              0.846776       1.012591

                          7       1    1px               0.850834       1.164786
                          7       1    1py               0.850834       1.164786
                          7       1    1pz               0.850834       1.164786

                          8       1    1s                1.222668       0.828689

                          9       1    1px               1.407740       2.185714
                          9       1    1py               1.407740       2.185714
                          9       1    1pz               1.407740       2.185714

                         10       1    1fx3              1.558946       3.997832
                         10       1    1fx2y             1.558946       8.939425
                         10       1    1fx2z             1.558946       8.939425
                         10       1    1fxy2             1.558946       8.939425
                         10       1    1fxyz             1.558946      15.483538
                         10       1    1fxz2             1.558946       8.939425
                         10       1    1fy3              1.558946       3.997832
                         10       1    1fy2z             1.558946       8.939425
                         10       1    1fyz2             1.558946       8.939425
                         10       1    1fz3              1.558946       3.997832

                         11       1    1gx4              1.776407       5.403523
                         11       1    1gx3y             1.776407      14.296377
                         11       1    1gx3z             1.776407      14.296377
                         11       1    1gx2y2            1.776407      18.456544
                         11       1    1gx2yz            1.776407      31.967672
                         11       1    1gx2z2            1.776407      18.456544
                         11       1    1gxy3             1.776407      14.296377
                         11       1    1gxy2z            1.776407      31.967672
                         11       1    1gxyz2            1.776407      31.967672
                         11       1    1gxz3             1.776407      14.296377
                         11       1    1gy4              1.776407       5.403523
                         11       1    1gy3z             1.776407      14.296377
                         11       1    1gy2z2            1.776407      18.456544
                         11       1    1gyz3             1.776407      14.296377
                         11       1    1gz4              1.776407       5.403523

                         12       1    1dx2              2.210185       6.594160
                         12       1    1dxy              2.210185      11.421421
                         12       1    1dxz              2.210185      11.421421
                         12       1    1dy2              2.210185       6.594160
                         12       1    1dyz              2.210185      11.421421
                         12       1    1dz2              2.210185       6.594160

                         13       1    1s                2.431967       1.387965

                         14       1    1px               2.898158       5.390049
                         14       1    1py               2.898158       5.390049
                         14       1    1pz               2.898158       5.390049

                         15       1    1fx3              3.473067      24.241470
                         15       1    1fx2y             3.473067      54.205574
                         15       1    1fx2z             3.473067      54.205574
                         15       1    1fxy2             3.473067      54.205574
                         15       1    1fxyz             3.473067      93.886808
                         15       1    1fxz2             3.473067      54.205574
                         15       1    1fy3              3.473067      24.241470
                         15       1    1fy2z             3.473067      54.205574
                         15       1    1fyz2             3.473067      54.205574
                         15       1    1fz3              3.473067      24.241470

                         16       1    1dx2              4.584723      23.643264
                         16       1    1dxy              4.584723      40.951334
                         16       1    1dxz              4.584723      40.951334
                         16       1    1dy2              4.584723      23.643264
                         16       1    1dyz              4.584723      40.951334
                         16       1    1dz2              4.584723      23.643264

                         17       1    1s                7.906874       3.360576

                         18       1    1px              10.323897      26.378169
                         18       1    1py              10.323897      26.378169
                         18       1    1pz              10.323897      26.378169

                         19       1    1dx2             13.908637     164.876008
                         19       1    1dxy             13.908637     285.573622
                         19       1    1dxz             13.908637     285.573622
                         19       1    1dy2             13.908637     164.876008
                         19       1    1dyz             13.908637     285.573622
                         19       1    1dz2             13.908637     164.876008

                         20       1    1s               21.681924       7.161161

                         21       1    1px              34.965027     121.194365
                         21       1    1py              34.965027     121.194365
                         21       1    1pz              34.965027     121.194365

                         22       1    1s               64.276031      16.178821

                         23       1    1s              287.509269      49.762132

       Atomic covalent radius [Angstrom]:                                  0.750

       Atomic van der Waals radius [Angstrom]:                             1.550

     The atoms of this atomic kind are PAW atoms (GAPW):
       Hard Gaussian function radius:                                      1.512
       Rho0 radius:                                                        1.512
       Maximum GTO radius used for PAW projector construction:            24.566

     GAPW Soft Basis Set                                            cc-pVTZ_soft

       Number of orbital shell sets:                                           4
       Number of orbital shells:                                              10
       Number of primitive Cartesian functions:                                9
       Number of Cartesian basis functions:                                   35
       Number of spherical basis functions:                                   30
       Norm type:                                                              2

       Normalised Cartesian orbitals:

                        Set   Shell   Orbital            Exponent    Coefficient

                          1       1    1px               1.742000       0.000000
                                                         0.555000       0.682820
                                                         0.172500       0.000000
                          1       1    1py               1.742000       0.000000
                                                         0.555000       0.682820
                                                         0.172500       0.000000
                          1       1    1pz               1.742000       0.000000
                                                         0.555000       0.682820
                                                         0.172500       0.000000

                          1       2    2px               1.742000       0.852042
                                                         0.555000       0.340377
                                                         0.172500       0.053406
                          1       2    2py               1.742000       0.852042
                                                         0.555000       0.340377
                                                         0.172500       0.053406
                          1       2    2pz               1.742000       0.852042
                                                         0.555000       0.340377
                                                         0.172500       0.053406

                          1       3    3px               1.742000       0.000000
                                                         0.555000       0.000000
                                                         0.172500       0.158462
                          1       3    3py               1.742000       0.000000
                                                         0.555000       0.000000
                                                         0.172500       0.158462
                          1       3    3pz               1.742000       0.000000
                                                         0.555000       0.000000
                                                         0.172500       0.158462

                          2       1    1s                1.293000       0.035658
                                                         0.511800      -0.003669
                                                         0.178700       0.000467

                          2       2    2s                1.293000       0.864190
                                                         0.511800       0.000000
                                                         0.178700       0.000000

                          2       3    3s                1.293000       0.131196
                                                         0.511800       0.258729
                                                         0.178700       0.075898

                          2       4    4s                1.293000       0.000000
                                                         0.511800       0.000000
                                                         0.178700       0.195886

                          3       1    1dx2              1.654000       3.970513
                                                         0.469000       0.000000
                          3       1    1dxy              1.654000       6.877130
                                                         0.469000       0.000000
                          3       1    1dxz              1.654000       6.877130
                                                         0.469000       0.000000
                          3       1    1dy2              1.654000       3.970513
                                                         0.469000       0.000000
                          3       1    1dyz              1.654000       6.877130
                                                         0.469000       0.000000
                          3       1    1dz2              1.654000       3.970513
                                                         0.469000       0.000000

                          3       2    2dx2              1.654000       0.000000
                                                         0.469000       0.437484
                          3       2    2dxy              1.654000       0.000000
                                                         0.469000       0.757744
                          3       2    2dxz              1.654000       0.000000
                                                         0.469000       0.757744
                          3       2    2dy2              1.654000       0.000000
                                                         0.469000       0.437484
                          3       2    2dyz              1.654000       0.000000
                                                         0.469000       0.757744
                          3       2    2dz2              1.654000       0.000000
                                                         0.469000       0.437484

                          4       1    1fx3              1.093000       1.798249
                          4       1    1fx2y             1.093000       4.021007
                          4       1    1fx2z             1.093000       4.021007
                          4       1    1fxy2             1.093000       4.021007
                          4       1    1fxyz             1.093000       6.964588
                          4       1    1fxz2             1.093000       4.021007
                          4       1    1fy3              1.093000       1.798249
                          4       1    1fy2z             1.093000       4.021007
                          4       1    1fyz2             1.093000       4.021007
                          4       1    1fz3              1.093000       1.798249

     AE Potential information for                                            ALL

       Description:                                       All-electron potential
                                          Krack, Parrinello, PCCP 2, 2105 (2000)

       Gaussian exponent of the core charge distribution:               5.979100
       Electronic configuration (s p d ...):                           4   3   0

  3. Atomic kind: C                                     Number of atoms:       2

     Orbital Basis Set                                                   cc-pVTZ

       Number of orbital shell sets:                                           4
       Number of orbital shells:                                              10
       Number of primitive Cartesian functions:                               18
       Number of Cartesian basis functions:                                   35
       Number of spherical basis functions:                                   30
       Norm type:                                                              2

       Normalised Cartesian orbitals:

                        Set   Shell   Orbital            Exponent    Coefficient

                          1       1    1px              18.710000       0.000000
                                                         4.133000       0.000000
                                                         1.200000       0.000000
                                                         0.382700       0.429055
                                                         0.120900       0.000000
                          1       1    1py              18.710000       0.000000
                                                         4.133000       0.000000
                                                         1.200000       0.000000
                                                         0.382700       0.429055
                                                         0.120900       0.000000
                          1       1    1pz              18.710000       0.000000
                                                         4.133000       0.000000
                                                         1.200000       0.000000
                                                         0.382700       0.429055
                                                         0.120900       0.000000

                          1       2    2px              18.710000       0.778253
                                                         4.133000       0.729662
                                                         1.200000       0.519563
                                                         0.382700       0.214960
                                                         0.120900       0.034896
                          1       2    2py              18.710000       0.778253
                                                         4.133000       0.729662
                                                         1.200000       0.519563
                                                         0.382700       0.214960
                                                         0.120900       0.034896
                          1       2    2pz              18.710000       0.778253
                                                         4.133000       0.729662
                                                         1.200000       0.519563
                                                         0.382700       0.214960
                                                         0.120900       0.034896

                          1       3    3px              18.710000       0.000000
                                                         4.133000       0.000000
                                                         1.200000       0.000000
                                                         0.382700       0.000000
                                                         0.120900       0.101619
                          1       3    3py              18.710000       0.000000
                                                         4.133000       0.000000
                                                         1.200000       0.000000
                                                         0.382700       0.000000
                                                         0.120900       0.101619
                          1       3    3pz              18.710000       0.000000
                                                         4.133000       0.000000
                                                         1.200000       0.000000
                                                         0.382700       0.000000
                                                         0.120900       0.101619

                          2       1    1s             8236.000000       0.327184
                                                      1235.000000       0.609945
                                                       280.800000       1.030914
                                                        79.270000       1.549802
                                                        25.590000       1.904111
                                                         8.997000       1.608326
                                                         3.319000       0.606601
                                                         0.905900       0.026060
                                                         0.364300      -0.003002
                                                         0.128500       0.000365

                          2       2    2s             8236.000000       0.000000
                                                      1235.000000       0.000000
                                                       280.800000       0.000000
                                                        79.270000       0.000000
                                                        25.590000       0.000000
                                                         8.997000       0.000000
                                                         3.319000       0.000000
                                                         0.905900       0.661790
                                                         0.364300       0.000000
                                                         0.128500       0.000000

                          2       3    3s             8236.000000      -0.069627
                                                      1235.000000      -0.130363
                                                       280.800000      -0.221954
                                                        79.270000      -0.343330
                                                        25.590000      -0.452153
                                                         8.997000      -0.469816
                                                         3.319000      -0.298547
                                                         0.905900       0.092903
                                                         0.364300       0.200079
                                                         0.128500       0.060480

                          2       4    4s             8236.000000       0.000000
                                                      1235.000000       0.000000
                                                       280.800000       0.000000
                                                        79.270000       0.000000
                                                        25.590000       0.000000
                                                         8.997000       0.000000
                                                         3.319000       0.000000
                                                         0.905900       0.000000
                                                         0.364300       0.000000
                                                         0.128500       0.152963

                          3       1    1dx2              1.097000       1.935401
                                                         0.318000       0.000000
                          3       1    1dxy              1.097000       3.352214
                                                         0.318000       0.000000
                          3       1    1dxz              1.097000       3.352214
                                                         0.318000       0.000000
                          3       1    1dy2              1.097000       1.935401
                                                         0.318000       0.000000
                          3       1    1dyz              1.097000       3.352214
                                                         0.318000       0.000000
                          3       1    1dz2              1.097000       1.935401
                                                         0.318000       0.000000

                          3       2    2dx2              1.097000       0.000000
                                                         0.318000       0.221644
                          3       2    2dxy              1.097000       0.000000
                                                         0.318000       0.383899
                          3       2    2dxz              1.097000       0.000000
                                                         0.318000       0.383899
                          3       2    2dy2              1.097000       0.000000
                                                         0.318000       0.221644
                          3       2    2dyz              1.097000       0.000000
                                                         0.318000       0.383899
                          3       2    2dz2              1.097000       0.000000
                                                         0.318000       0.221644

                          4       1    1fx3              0.761000       0.796288
                          4       1    1fx2y             0.761000       1.780553
                          4       1    1fx2z             0.761000       1.780553
                          4       1    1fxy2             0.761000       1.780553
                          4       1    1fxyz             0.761000       3.084008
                          4       1    1fxz2             0.761000       1.780553
                          4       1    1fy3              0.761000       0.796288
                          4       1    1fy2z             0.761000       1.780553
                          4       1    1fyz2             0.761000       1.780553
                          4       1    1fz3              0.761000       0.796288

     RI Auxiliary Basis Set                                        cc-pVTZ-RIFIT

       Number of orbital shell sets:                                          23
       Number of orbital shells:                                              23
       Number of primitive Cartesian functions:                               23
       Number of Cartesian basis functions:                                  101
       Number of spherical basis functions:                                   81
       Norm type:                                                              2

[...]
 fhxc_kernel                          9  8.0    0.008    0.009  175.108  175.109
 pw_poisson_solve                   233  9.5    1.857    2.480   84.604   85.275
 scf_env_do_scf                       1  3.0    0.000    0.000   82.027   82.033
 scf_env_do_scf_inner_loop           53  4.0    0.001    0.004   82.027   82.033
 tddfpt_apply_coulomb               180  9.0    0.004    0.005   78.077   78.731
 fft_wrap_pw1pw2                   4727 11.2    0.077    0.102   77.493   78.485
 fft_wrap_pw1pw2_250               3323 12.2    2.293    2.555   73.573   74.487
 fft3d_ps                          4727 13.2   21.976   23.441   67.558   69.000
 qs_ks_update_qs_env                 53  5.0    0.000    0.000   65.921   65.929
 rebuild_ks_matrix                   53  6.0    0.000    0.000   65.915   65.924
 qs_ks_build_kohn_sham_matrix        53  7.0    0.008    0.009   65.915   65.924
 ps_wavelet_solve                   233 10.5   23.836   34.475   56.901   57.127
 mp_alltoall_z22v                  4727 15.2   40.183   48.829   40.183   48.829
 integrate_four_center              413  9.9    7.860   17.686   45.589   45.724
 qs_rho_update_rho_low              235  8.1    0.003    0.003   42.454   42.460
 calculate_rho_elec                 235  9.1    0.513    0.549   39.239   39.245
 mp_alltoall_d54                    233 11.5   12.798   31.981   12.798   31.981
 xc_pw_derive                      1401 11.0    0.014    0.017   29.697   30.983
 integrate_v_rspace                 233  9.0    0.006    0.007   28.427   28.737
 tddfpt_apply_xc_analytic           180  9.0    0.124    0.153   28.017   28.152
 density_rs2pw                      235 10.1    0.014    0.017   25.347   28.074
 x_to_yz                           1921 13.8    2.246    2.543   26.262   27.992
 tddfpt_apply_hfx                     9  8.0    0.004    0.004   26.211   26.211
 hfx_ks_matrix                       53  8.0    0.002    0.002   23.118   23.157
 yz_to_x                           1870 14.6    1.703    2.072   17.708   22.641
 tddft_hfx_matrix                   360  9.0    0.010    0.011   22.484   22.584
 mp_alltoall_d45                    234 11.5   20.125   22.498   20.125   22.498
 mp_sync                           2176 11.5   14.442   22.362   14.442   22.362
 transfer_rs2pw                    1175 11.0    0.035    0.058   18.724   21.511
 potential_pw2rs                    233 10.0    0.049    0.066   21.158   21.440
 xc_pw_divergence                   233 10.8    0.007    0.009   19.970   21.011
 transfer_pw2rs                    1166 10.9    0.015    0.020   19.502   19.693
 xc_calc_2nd_deriv_analytical      1260 10.1    0.870    1.063   16.435   16.521
 mp_alltoall_d11v                 15628 11.7   13.133   16.341   13.133   16.341
 mp_waitany                       59010 12.9   13.277   16.200   13.277   16.200
 grid_collocate_task_list           235 10.1   12.846   15.399   12.846   15.399
 prepare_gapw_den                   234  8.8    0.006    0.006   15.073   15.243
 transfer_rs2pw_250                 470 11.9    3.595    3.981    9.580   12.555
 transfer_pw2rs_250                 467 11.8    3.357    3.681   10.511   10.800
 put_rho0_on_grid                   234  9.8    0.540    0.669   10.353   10.523
 calculate_xc_2nd_deriv_atom        180  9.0    0.083    2.893    0.203    9.856
 mp_waitall_1                    493134 13.2    7.747    9.548    7.747    9.548
 integrate_vhg0_rspace              233  9.5    0.257    0.321    9.311    9.401
 qs_vxc_create                       53  8.0    0.001    0.001    9.303    9.311
 xc_vxc_pw_create                    53  9.0    0.150    0.173    9.302    9.310
 calc_screening_functions             1 10.0    4.924    5.219    8.612    9.222
 powell_optimize                2810802 11.0    6.952    8.563    6.952    8.563
 gaVxcgb_GC                         699  9.8    0.115    8.326    0.115    8.326
 cp_dbcsr_sm_fm_multiply           1126  8.6    0.024    0.027    8.023    8.140
 integrate_four_center_main         413 10.9    0.106    2.193    3.246    7.471
 rs_gather_matrices                 233 10.0    0.022    0.033    7.000    7.297
 grid_integrate_task_list           233 10.0    0.263    7.005    0.263    7.005
 mp_sum_d                          6306  7.5    4.367    6.702    4.367    6.702
 sum_up_and_integrate                53  8.0    0.001    0.001    6.293    6.318
 mp_sum_dm                         8522 10.2    5.799    5.981    5.799    5.981
 calc_pair_dist_radii                 1 10.0    1.516    1.544    4.781    5.777
 dbcsr_complete_redistribute       3696 10.5    0.154    0.223    5.317    5.435
 integrate_four_center_bin        43458 11.9    3.140    5.278    3.140    5.278
 transfer_rs2pw_30                  235 12.1    2.222    2.353    5.077    5.203
 transfer_pw2rs_30                  233 12.0    2.137    2.313    4.858    5.154
 xc_rho_set_and_dset_create          54 10.0    0.127    0.162    4.288    4.574
 calculate_rho_atom                1170  9.8    2.415    4.480    2.415    4.481
 gspace_mixing                       52  5.0    0.113    0.121    4.032    4.032
 mp_sendrecv_dv                  101050 13.1    3.806    3.980    3.806    3.980
 copy_dbcsr_to_fm                  1201  9.4    0.017    0.018    3.573    3.641
 copy_fm_to_dbcsr                  2493  9.6    0.012    0.013    3.511    3.633
 pw_scatter_p                      2387 12.9    3.060    3.616    3.060    3.616
 dbcsr_multiply_generic            1539 10.4    0.073    0.079    3.164    3.265
 calculate_rho_atom_coeff           235  9.1    0.050    0.125    3.212    3.212
 mp_isendrecv_dv                 277780 12.3    1.656    3.114    1.656    3.114
 create_qs_kind_set                   1  2.0    0.000    0.000    3.041    3.042
 read_qs_kind                         5  3.0    1.646    1.676    3.041    3.042
 pw_gather_p                       2340 13.5    2.580    3.039    2.580    3.039
 transfer_pw2rs_90                  233 12.0    0.580    0.662    2.602    2.977
 broyden_mixing                      52  6.0    2.776    2.863    2.895    2.933
 cp2k_distribution_to_z_slices      233 10.5    1.080    1.185    2.370    2.899
 transfer_rs2pw_90                  235 12.1    0.582    0.705    2.513    2.834
 integrate_four_center_getP         413 10.9    0.165    0.184    2.815    2.823
 cp_fm_syevd                        104  7.2    0.001    0.001    2.758    2.762
 rs_grid_zero                      1168 12.0    2.512    2.760    2.512    2.760
 integrate_four_center_dist_KS      413 10.9    0.157    0.175    2.715    2.721
 fft_wrap_pw1pw2_90                 468 12.0    0.069    0.110    2.400    2.706
 mp_sum_dv                        25063  8.9    2.551    2.681    2.551    2.681
 cp_fm_redistribute_end             104  8.2    1.355    2.623    1.362    2.630
 mp_alltoall_i11v                 12290 11.5    2.588    2.591    2.588    2.591
 cp_fm_syevd_base                   104  8.2    1.262    2.530    1.262    2.530
 pw_derive                         2100 11.8    2.303    2.471    2.303    2.471
 calculate_vxc_atom                  53  8.0    0.046    0.459    2.436    2.438
 qs_scf_new_mos                      53  5.0    0.001    0.001    2.360    2.369
 cp_dbcsr_sm_fm_multiply_core      1126  9.6    0.003    0.003    2.228    2.322
 multiply_cannon                   1539 11.4    0.192    0.199    1.893    1.997
 mp_sum_l                          5875 10.6    1.800    1.945    1.800    1.945
 eigensolver_symm                    53  6.0    0.002    0.002    1.862    1.865
 integrate_four_center_load         413 10.9    0.001    0.002    1.631    1.770
 hfx_load_balance                     1 11.0    0.000    0.000    1.630    1.769
 tddfpt_orthonormalize_psi1_psi      10  6.9    0.024    0.026    1.753    1.753
 hfx_load_balance_range               1 12.0    0.000    0.000    1.607    1.745
 dbcsr_desymmetrize_deep           1202 10.4    0.035    0.041    1.661    1.731
 pw_copy                           3140 11.0    1.577    1.728    1.577    1.728
 pw_copy_to_array                  2340 13.5    1.130    1.597    1.130    1.597
 transfer_pw2rs_10                  233 12.0    0.561    0.701    1.515    1.581
 cp_dbcsr_plus_fm_fm_t              233  8.5    0.004    0.004    1.558    1.573
 multiply_cannon_loop              1539 12.4    0.357    0.378    1.445    1.551
 transfer_rs2pw_10                  235 12.1    0.570    0.610    1.520    1.535
 tddfpt_print_nto_analysis            1  6.0    0.003    0.004    1.450    1.451
 parser_read_line                350199  4.0    0.118    0.128    1.395    1.418
 pw_poisson_set                     234 10.5    0.006    0.008    1.385    1.411
 tddfpt_apply_energy_diff             9  8.0    0.001    0.001    1.401    1.401
 mp_isend_dv                     160562 13.9    0.787    1.309    0.787    1.309
 parser_read_line_low               380  5.0    0.110    0.580    1.276    1.304
 Vh_1c_gg_integrals                 233  9.5    0.038    0.588    0.705    1.251
 broadcast_input_information        380  6.0    0.263    0.290    1.167    1.229
 xc_functional_eval                1452 10.9    0.001    0.005    0.673    1.144
 tddfpt_compute_residual_vects        8  7.0    0.001    0.001    1.141    1.142
 pbe_lda_eval                      1452 11.9    0.673    1.141    0.673    1.141
 mp_isend_dm3                      8430 12.9    0.499    1.134    0.499    1.134
 mp_irecv_dm3                      8430 12.9    0.625    1.091    0.625    1.091
 pw_integral_ab_c1d_c1d_gs          233 10.5    0.758    0.764    0.957    1.039
 mp_alltoall_z11v                   936 15.0    0.953    0.990    0.953    0.990
 fft_wrap_pw1pw2_30                 468 12.0    0.013    0.015    0.953    0.988
 pw_axpy                           2518 10.9    0.879    0.982    0.879    0.982
 qs_energies_init_hamiltonians        1  3.0    0.000    0.000    0.941    0.941
 make_m2s                          3078 11.4    0.065    0.077    0.859    0.929
 build_core_hamiltonian_matrix        1  4.0    0.000    0.000    0.928    0.928
 overlap_condnum                      1  5.0    0.000    0.000    0.924    0.926
 cp_fm_geeig                         20  7.0    0.001    0.001    0.921    0.922
 mp_alltoall_i22                   4898 11.5    0.708    0.880    0.708    0.880
 pw_copy_from_array                2387 12.9    0.709    0.876    0.709    0.876
 pw_zero                           2664 10.6    0.761    0.866    0.761    0.866
 hybrid_alltoall_any               4280 13.5    0.039    0.053    0.818    0.855
 mp_max_i                           716  4.9    0.323    0.846    0.323    0.846
 parallel_gemm_fm                  1633  8.3    0.002    0.002    0.804    0.819
 parallel_gemm_fm_gemm             1633  9.3    0.002    0.002    0.802    0.817
 cp_fm_gemm                        1633 10.3    0.800    0.815    0.800    0.815
 arnoldi_conjugate_gradient           5  6.0    0.018    0.022    0.807    0.807
 make_images                       3078 12.4    0.175    0.185    0.704    0.761
 yz_to_xz                           466 14.0    0.042    0.047    0.632    0.666
 mp_bcast_i_src                    1520  7.0    0.416    0.624    0.416    0.624
 pw_poisson_rebuild                 233 10.5    0.000    0.001    0.596    0.621
 ps_wavelet_create                    1 10.0    0.000    0.000    0.596    0.620
 RS_z_slice_distribution              1 11.0    0.499    0.581    0.596    0.620
 mp_bcast_am_src                    380  7.0    0.435    0.522    0.475    0.569
 offload_free_buffer                241 10.3    0.464    0.554    0.464    0.554
 fft_wrap_pw1pw2_10                 468 12.0    0.005    0.005    0.490    0.498
 dbcsr_sym_matrix_vector_mult      2678  7.0    0.042    0.048    0.404    0.493
 xc_2nd_deriv_of_r                 1080 10.0    0.002    0.078    0.009    0.462
 cp_fm_trace_a1b1t1_aa            16500  8.0    0.078    0.084    0.409    0.413
 mp_rank_compare                   4727 14.2    0.387    0.410    0.387    0.410
 xz_to_yz                           470 14.1    0.028    0.032    0.391    0.395
 multiply_cannon_metrocomm4       52326 13.4    0.154    0.163    0.308    0.378
 multiply_cannon_metrocomm3       55404 13.4    0.090    0.093    0.252    0.364
 dbcsr_finalize                   11068 11.4    0.041    0.089    0.190    0.353
 init_scf_run                         1  3.0    0.000    0.000    0.349    0.349
 update_ks_atom                     233  8.8    0.036    0.076    0.275    0.337
 calculate_dm_sparse                 53  6.0    0.000    0.001    0.321    0.331
 qs_init_subsys                       1  2.0    0.005    0.005    0.324    0.325
 prepare_dr1dr                     1260 11.1    0.275    0.317    0.275    0.317
 scf_env_initial_rho_setup            1  4.0    0.000    0.000    0.306    0.306
 qs_env_setup                         1  3.0    0.000    0.000    0.299    0.306
 qs_env_rebuild_pw_env                2  3.5    0.000    0.000    0.297    0.305
 pw_env_rebuild                       1  5.0    0.001    0.001    0.297    0.304
 make_images_sizes                 3078 13.4    0.004    0.004    0.285    0.300
 mp_alltoall_i44                   3078 14.4    0.282    0.296    0.282    0.296
 multiply_cannon_metrocomm2       50787 13.4    0.151    0.161    0.271    0.291
 mp_bcast_dm                       5592  9.8    0.238    0.274    0.238    0.274
 multiply_cannon_metrocomm1       55404 13.4    0.064    0.066    0.173    0.263
 scale_and_distribute               466 11.5    0.240    0.263    0.240    0.263
 mp_cart_sub                       2406 11.4    0.250    0.251    0.250    0.251
 tddfpt_construct_ground_state_       1  6.0    0.000    0.000    0.242    0.243
 dbcsr_add_d                       4055  7.0    0.004    0.004    0.034    0.242
 dbcsr_add_anytype                 4055  8.0    0.005    0.031    0.031    0.237
 calculate_rho0_atom               1170  9.8    0.221    0.226    0.221    0.226
 multiply_cannon_multrec          55404 13.4    0.076    0.220    0.083    0.226
 mp_cart_create                    2371 10.6    0.178    0.207    0.181    0.210
 dbcsr_col_vec_to_rep_row          2678  8.0    0.019    0.022    0.128    0.203
 rs_scatter_matrices                235 10.1    0.002    0.005    0.193    0.201
 pw_grid_setup                        4  6.0    0.000    0.000    0.193    0.200
 pw_grid_setup_internal               4  7.0    0.003    0.005    0.192    0.200
 dbcsr_merge_all                   9556 12.4    0.083    0.143    0.108    0.196
 dbcsr_create_new                 42308 11.3    0.140    0.147    0.181    0.188
 dbcsr_rep_row_to_rep_col_vec      2678  8.0    0.013    0.017    0.074    0.184
 mp_allgather_i34                  1539 12.4    0.153    0.177    0.153    0.177
 mp_irecv_dv                     159131 13.9    0.115    0.161    0.115    0.161
 make_images_data                  3078 13.4    0.038    0.051    0.089    0.152
 tddfpt_compute_ritz_vects            9  7.0    0.007    0.007    0.147    0.147
 cp_fm_redistribute_start           104  8.2    0.104    0.107    0.133    0.143
 mp_bcast_dv                       2782  9.0    0.054    0.123    0.054    0.123
 dbcsr_iterator_start             56721 10.4    0.068    0.089    0.084    0.116
 dbcsr_special_finalize            7695 13.4    0.030    0.032    0.085    0.113
 dbcsr_copy                       14496  8.4    0.049    0.057    0.093    0.110
 cp_fm_cholesky_decompose            20  8.0    0.109    0.109    0.109    0.109
 tddfpt_orthogonalize_psi1_psi0      10  6.9    0.000    0.001    0.098    0.109
 cube_transpose_2                   470 14.1    0.009    0.010    0.095    0.103
 create_kernel_env                    1  6.0    0.000    0.000    0.093    0.102
 xc_prep_2nd_deriv                    1  7.0    0.000    0.000    0.093    0.102
 compute_max_radius                   1  6.0    0.097    0.099    0.097    0.099
 pw_scale                           572  9.5    0.088    0.099    0.088    0.099
 mp_isend_iv                     112234 14.4    0.083    0.092    0.083    0.092
 mp_bcast_iv                        417  7.5    0.040    0.091    0.040    0.091
 vxc_of_r_new                       318  9.0    0.000    0.014    0.002    0.090
 cp_fm_triangular_multiply           60  8.0    0.089    0.090    0.089    0.090
 cube_transpose_1                   466 14.0    0.008    0.009    0.083    0.089
 pw_grid_sort                         4  8.0    0.043    0.053    0.067    0.087
 copy_fm_to_dbcsr_bc               2493 10.6    0.028    0.030    0.082    0.086
 cp_fm_triangular_invert             20  8.0    0.081    0.082    0.081    0.082
 dbcsr_work_create                18453 12.5    0.036    0.049    0.055    0.079
 dbcsr_iterator_stop              56721 10.4    0.049    0.062    0.061    0.075
 dbcsr_destroy                    36903 10.9    0.047    0.049    0.068    0.073
 dbcsr_merge_single_wm             7695 14.4    0.038    0.046    0.045    0.072
 dbcsr_data_new                  125876 12.6    0.058    0.069    0.058    0.069
 rs_grid_create                     239 10.4    0.001    0.002    0.009    0.069
 dbcsr_data_release              203660 12.3    0.054    0.068    0.054    0.068
 offload_create_buffer              241 11.4    0.007    0.068    0.007    0.068
 dbcsr_work_destroy_all           18453 13.4    0.031    0.046    0.042    0.064
 mp_cart_rank                    201780 11.0    0.053    0.061    0.053    0.061
 dbcsr_make_images_dense            826 11.7    0.017    0.020    0.043    0.060
 scf_post_calculation_gpw             1  3.0    0.000    0.000    0.057    0.057
 write_available_results              1  4.0    0.000    0.000    0.057    0.057
 write_mo_free_results                1  5.0    0.003    0.004    0.057    0.057
 mixing_init                          1  5.0    0.041    0.057    0.057    0.057
 tddfpt_is_nonorthogonal_psi1_p       8  7.0    0.000    0.001    0.055    0.055
 mp_irecv_iv                     111627 14.4    0.045    0.053    0.045    0.053
 cp_fm_power                          1  6.0    0.000    0.000    0.051    0.051
 create_fast_col_vec_access        5356  8.0    0.022    0.027    0.034    0.041
 create_fast_row_vec_access        5356  8.0    0.022    0.026    0.034    0.041
 mp_sum_im                          109  9.0    0.034    0.041    0.034    0.041
 cp_fm_write_unformatted             23  7.0    0.023    0.035    0.024    0.040
 cp_fm_symm                          53  7.0    0.035    0.040    0.035    0.040
 setup_buffer_matrices             3078 12.4    0.012    0.013    0.038    0.040
 pw_grid_remap                        4  8.0    0.003    0.003    0.034    0.036
 pw_grid_distribute                   4  8.0    0.010    0.013    0.022    0.036
 sort_shells                          4  9.0    0.024    0.035    0.024    0.035
 mp_sum_im3                           4  9.0    0.031    0.033    0.031    0.033
 dbcsr_make_untransposed_blocks    2492 11.4    0.015    0.021    0.024    0.031
 dbcsr_make_dense_low              2065 12.7    0.010    0.011    0.016    0.031
 mp_sum_iv                          688  7.4    0.025    0.030    0.025    0.030
 -------------------------------------------------------------------------------

 The number of warnings for this run is : 1
 
 -------------------------------------------------------------------------------
  **** **** ******  **  PROGRAM ENDED AT                 2025-04-02 09:42:49.424
 ***** ** ***  *** **   PROGRAM RAN ON                              i08r06c03s09
 **    ****   ******    PROGRAM RAN BY                                   di38fab
 ***** **    ** ** **   PROGRAM PROCESS ID                               1101912
  **** **  *******  **  PROGRAM STOPPED IN /hppfs/scratch/04/di38fab/07_MOL_non_
                                           aug/05_MOL_non_aug/05_MOL/aUKBqsEOTmq
                                           69kFe5R_nOg/5k_set_final_qzvp/VEVCEF/
                                           cc-pVTZ/TDDFT
