 DBCSR| CPU Multiplication driver                                           BLAS (U)
 DBCSR| Multrec recursion limit                                              512 (U)
 DBCSR| Multiplication stack size                                           1000 (D)
 DBCSR| Maximum elements for images                                    UNLIMITED (U)
 DBCSR| Multiplicative factor virtual images                                   1 (U)
 DBCSR| Use multiplication densification                                       T (D)
 DBCSR| Multiplication size stacks                                             3 (U)
 DBCSR| Use memory pool for CPU allocation                                     F (U)
 DBCSR| Number of 3D layers                                               SINGLE (U)
 DBCSR| Use MPI memory allocation                                              F (U)
 DBCSR| Use RMA algorithm                                                      F (U)
 DBCSR| Use Communication thread                                               T (U)
 DBCSR| Communication thread load                                             75 (D)
 DBCSR| MPI: My process id                                                     0
 DBCSR| MPI: Number of processes                                             216
 DBCSR| OMP: Current number of threads                                         4
 DBCSR| OMP: Max number of threads                                             4
 DBCSR| Split modifier for TAS multiplication algorithm                  1.0E+00 (U)


  **** **** ******  **  PROGRAM STARTED AT               2025-04-02 20:39:39.953
 ***** ** ***  *** **   PROGRAM STARTED ON                          i05r01c02s07
 **    ****   ******    PROGRAM STARTED BY                               di38fab
 ***** **    ** ** **   PROGRAM PROCESS ID                               3932293
  **** **  *******  **  PROGRAM STARTED IN /hppfs/scratch/04/di38fab/07_MOL_non_
                                           aug/05_MOL_non_aug/05_MOL/aUKBqsEOTmq
                                           69kFe5R_nOg/5k_set_final_qzvp/OGEJUG/
                                           cc-pVDZ/TDDFT

 CP2K| version string:                 CP2K version 2025.1 (Development Version)
 CP2K| source code revision number:                                  git:d2e611a
 CP2K| cp2kflags: omp libint fftw3 libxc parallel scalapack max_contr=4         
 CP2K| is freely available from                            https://www.cp2k.org/
 CP2K| Program compiled at                       Thu 06 Mar 2025 05:09:20 PM CET
 CP2K| Program compiled on                                               login02
 CP2K| Program compiled for                                        Supermuc-foss
 CP2K| Data directory path                  /hppfs/work/pn36zo/di38fab/cp2k/data
 CP2K| Input file name                                                    GW.inp

 GLOBAL| Force Environment number                                              1
 GLOBAL| Basis set file name            /hppfs/scratch/04/di38fab/04_TMD/BASIS_A
 GLOBAL| Potential file name            /hppfs/work/pn36zo/di38fab/cp2k/data/ALL
 GLOBAL| MM Potential file name                                     MM_POTENTIAL
 GLOBAL| Coordinate file name                                      __STD_INPUT__
 GLOBAL| Method name                                                        CP2K
 GLOBAL| Project name                                                       MoS2
 GLOBAL| Run type                                                         ENERGY
 GLOBAL| FFT library                                                       FFTW3
 GLOBAL| Diagonalization library                                       ScaLAPACK
 GLOBAL| DGEMM library                                                      BLAS
 GLOBAL| Orthonormality check for eigenvectors                          DISABLED
 GLOBAL| Matrix multiplication library                                 ScaLAPACK
 GLOBAL| All-to-all communication in single precision                          F
 GLOBAL| FFTs using library dependent lengths                                  F
 GLOBAL| Grid backend                                                       AUTO
 GLOBAL| Global print level                                               MEDIUM
 GLOBAL| MPI I/O enabled                                                       T
 GLOBAL| Total number of message passing processes                           216
 GLOBAL| Number of threads for this process                                    4
 GLOBAL| This output is from process                                           0
 GLOBAL| OpenMP stack size per thread (OMP_STACKSIZE)                    default
 GLOBAL| CPU model name             Intel(R) Xeon(R) Platinum 8174 CPU @ 3.10GHz

 MEMORY| system memory details [Kb]
 MEMORY|                        rank 0           min           max       average
 MEMORY| MemTotal             98436664      98436648      98436708      98436667
 MEMORY| MemFree              83874968      83553204      84053920      83858899
 MEMORY| Buffers                     0             0             0             0
 MEMORY| Cached                2398500       2382748       2423440       2399143
 MEMORY| Slab                  1260200       1207568       1270900       1250231
 MEMORY| SReclaimable           275124        272368        283168        278785
 MEMORY| MemLikelyFree        86548592      86236348      86730164      86536828


 *** Fundamental physical constants (SI units) ***

 *** Literature: B. J. Mohr and B. N. Taylor,
 ***             CODATA recommended values of the fundamental physical
 ***             constants: 2006, Web Version 5.1
 ***             http://physics.nist.gov/constants

 Speed of light in vacuum [m/s]                             2.99792458000000E+08
 Magnetic constant or permeability of vacuum [N/A**2]       1.25663706143592E-06
 Electric constant or permittivity of vacuum [F/m]          8.85418781762039E-12
 Planck constant (h) [J*s]                                  6.62606896000000E-34
 Planck constant (h-bar) [J*s]                              1.05457162825177E-34
 Elementary charge [C]                                      1.60217648700000E-19
 Electron mass [kg]                                         9.10938215000000E-31
 Electron g factor [ ]                                     -2.00231930436220E+00
 Proton mass [kg]                                           1.67262163700000E-27
 Fine-structure constant                                    7.29735253760000E-03
 Rydberg constant [1/m]                                     1.09737315685270E+07
 Avogadro constant [1/mol]                                  6.02214179000000E+23
 Boltzmann constant [J/K]                                   1.38065040000000E-23
 Atomic mass unit [kg]                                      1.66053878200000E-27
 Bohr radius [m]                                            5.29177208590000E-11

 *** Conversion factors ***

 [u] -> [a.u.]                                              1.82288848426455E+03
 [Angstrom] -> [Bohr] = [a.u.]                              1.88972613288564E+00
 [a.u.] = [Bohr] -> [Angstrom]                              5.29177208590000E-01
 [a.u.] -> [s]                                              2.41888432650478E-17
 [a.u.] -> [fs]                                             2.41888432650478E-02
 [a.u.] -> [J]                                              4.35974393937059E-18
 [a.u.] -> [N]                                              8.23872205491840E-08
 [a.u.] -> [K]                                              3.15774647902944E+05
 [a.u.] -> [kJ/mol]                                         2.62549961709828E+03
 [a.u.] -> [kcal/mol]                                       6.27509468713739E+02
 [a.u.] -> [Pa]                                             2.94210107994716E+13
 [a.u.] -> [bar]                                            2.94210107994716E+08
 [a.u.] -> [atm]                                            2.90362800883016E+08
 [a.u.] -> [eV]                                             2.72113838565563E+01
 [a.u.] -> [Hz]                                             6.57968392072181E+15
 [a.u.] -> [1/cm] (wave numbers)                            2.19474631370540E+05
 [a.u./Bohr**2] -> [1/cm]                                   5.14048714338585E+03
 

 CELL_TOP| Volume [angstrom^3]:                                     27000.000000
 CELL_TOP| Vector a [angstrom    30.000     0.000     0.000   |a| =    30.000000
 CELL_TOP| Vector b [angstrom     0.000    30.000     0.000   |b| =    30.000000
 CELL_TOP| Vector c [angstrom     0.000     0.000    30.000   |c| =    30.000000
 CELL_TOP| Angle (b,c), alpha [degree]:                                90.000000
 CELL_TOP| Angle (a,c), beta  [degree]:                                90.000000
 CELL_TOP| Angle (a,b), gamma [degree]:                                90.000000
 CELL_TOP| Numerically orthorhombic:                                         YES
 CELL_TOP| Periodicity                                                      NONE

 GENERATE|  Preliminary Number of Bonds generated:                             0
 GENERATE|  Achieved consistency in connectivity generation.

 CELL| Volume [angstrom^3]:                                         27000.000000
 CELL| Vector a [angstrom]:      30.000     0.000     0.000   |a| =    30.000000
 CELL| Vector b [angstrom]:       0.000    30.000     0.000   |b| =    30.000000
 CELL| Vector c [angstrom]:       0.000     0.000    30.000   |c| =    30.000000
 CELL| Angle (b,c), alpha [degree]:                                    90.000000
 CELL| Angle (a,c), beta  [degree]:                                    90.000000
 CELL| Angle (a,b), gamma [degree]:                                    90.000000
 CELL| Numerically orthorhombic:                                             YES
 CELL| Periodicity                                                          NONE

 CELL_REF| Volume [angstrom^3]:                                     27000.000000
 CELL_REF| Vector a [angstrom    30.000     0.000     0.000   |a| =    30.000000
 CELL_REF| Vector b [angstrom     0.000    30.000     0.000   |b| =    30.000000
 CELL_REF| Vector c [angstrom     0.000     0.000    30.000   |c| =    30.000000
 CELL_REF| Angle (b,c), alpha [degree]:                                90.000000
 CELL_REF| Angle (a,c), beta  [degree]:                                90.000000
 CELL_REF| Angle (a,b), gamma [degree]:                                90.000000
 CELL_REF| Numerically orthorhombic:                                         YES
 CELL_REF| Periodicity                                                      NONE

 *******************************************************************************
 *******************************************************************************
 **                                                                           **
 **     #####                         ##              ##                      **
 **    ##   ##            ##          ##              ##                      **
 **   ##     ##                       ##            ######                    **
 **   ##     ##  ##   ##  ##   #####  ##  ##   ####   ##    #####    #####    **
 **   ##     ##  ##   ##  ##  ##      ## ##   ##      ##   ##   ##  ##   ##   **
 **   ##  ## ##  ##   ##  ##  ##      ####     ###    ##   ######   ######    **
 **    ##  ###   ##   ##  ##  ##      ## ##      ##   ##   ##       ##        **
 **     #######   #####   ##   #####  ##  ##  ####    ##    #####   ##        **
 **           ##                                                    ##        **
 **                                                                           **
 **                                                ... make the atoms dance   **
 **                                                                           **
 **            Copyright (C) by CP2K developers group (2000-2025)             **
 **                      J. Chem. Phys. 152, 194103 (2020)                    **
 **                                                                           **
 *******************************************************************************

 DFT| Spin restricted Kohn-Sham (RKS) calculation                            RKS
 DFT| Multiplicity                                                             1
 DFT| Number of spin states                                                    1
 DFT| Charge                                                                   0
 DFT| Self-interaction correction (SIC)                                       NO
 DFT| Cutoffs: density                                              1.000000E-10
 DFT|          gradient                                             1.000000E-10
 DFT|          tau                                                  1.000000E-10
 DFT|          cutoff_smoothing_range                               0.000000E+00
 DFT| XC density smoothing                                                  NONE
 DFT| XC derivatives                                                          PW

 FUNCTIONAL| PBE:
 FUNCTIONAL| J.P.Perdew, K.Burke, M.Ernzerhof, Phys. Rev. Letter, vol. 77, n 18,
 FUNCTIONAL|  pp. 3865-3868, (1996)sx=0.750sc=1.000{spin unpolarized}           


 QS| Method:                                                                GAPW
 QS| Density plane wave grid type                        NON-SPHERICAL FULLSPACE
 QS| Number of grid levels:                                                    4
 QS| Density cutoff [a.u.]:                                                250.0
 QS| Multi grid cutoff [a.u.]: 1) grid level                               250.0
 QS|                           2) grid level                                83.3
 QS|                           3) grid level                                27.8
 QS|                           4) grid level                                 9.3
 QS| Grid level progression factor:                                          3.0
 QS| Relative density cutoff [a.u.]:                                        50.0
 QS| Interaction thresholds: eps_pgf_orb:                                1.0E-12
 QS|                         eps_filter_matrix:                          0.0E+00
 QS|                         eps_core_charge:                            1.0E-14
 QS|                         eps_rho_gspace:                             1.0E-12
 QS|                         eps_rho_rspace:                             1.0E-12
 QS|                         eps_gvg_rspace:                             1.0E-06
 QS|                         eps_ppl:                                    1.0E-02
 QS|                         eps_ppnl:                                   1.0E-08
 QS| GAPW|      One center basis from orbital basis primitives
 QS| GAPW|                   eps_fit:                                    1.0E-04
 QS| GAPW|                   eps_iso:                                    1.0E-12
 QS| GAPW|                   eps_svd:                                    1.0E-08
 QS| GAPW|                   eps_cpc:                                    1.0E-12
 QS| GAPW|   atom-r-grid: quadrature:                                     GC_LOG
 QS| GAPW|      atom-s-grid:  max l :                                          4
 QS| GAPW|      max_l_rho0 :                                                   2


 ATOMIC KIND INFORMATION

  1. Atomic kind: N                                     Number of atoms:       2

     Orbital Basis Set                                                   cc-pVDZ

       Number of orbital shell sets:                                           3
       Number of orbital shells:                                               6
       Number of primitive Cartesian functions:                               14
       Number of Cartesian basis functions:                                   15
       Number of spherical basis functions:                                   14
       Norm type:                                                              2

       Normalised Cartesian orbitals:

                        Set   Shell   Orbital            Exponent    Coefficient

                          1       1    1px              13.550000       1.479258
                                                         2.917000       1.180072
                                                         0.797300       0.548036
                                                         0.218500       0.098423
                          1       1    1py              13.550000       1.479258
                                                         2.917000       1.180072
                                                         0.797300       0.548036
                                                         0.218500       0.098423
                          1       1    1pz              13.550000       1.479258
                                                         2.917000       1.180072
                                                         0.797300       0.548036
                                                         0.218500       0.098423

                          1       2    2px              13.550000       0.000000
                                                         2.917000       0.000000
                                                         0.797300       0.000000
                                                         0.218500       0.212939
                          1       2    2py              13.550000       0.000000
                                                         2.917000       0.000000
                                                         0.797300       0.000000
                                                         0.218500       0.212939
                          1       2    2pz              13.550000       0.000000
                                                         2.917000       0.000000
                                                         0.797300       0.000000
                                                         0.218500       0.212939

                          2       1    1s             9046.000000       0.462754
                                                      1357.000000       0.858723
                                                       309.300000       1.440591
                                                        87.730000       2.108533
                                                        28.560000       2.454153
                                                        10.210000       1.825915
                                                         3.838000       0.543758
                                                         0.746600       0.008838
                                                         0.224800      -0.000666

                          2       2    2s             9046.000000      -0.101145
                                                      1357.000000      -0.192492
                                                       309.300000      -0.314968
                                                        87.730000      -0.501437
                                                        28.560000      -0.593976
                                                        10.210000      -0.643503
                                                         3.838000      -0.238093
                                                         0.746600       0.314268
                                                         0.224800       0.134678

                          2       3    3s             9046.000000       0.000000
                                                      1357.000000       0.000000
                                                       309.300000       0.000000
                                                        87.730000       0.000000
                                                        28.560000       0.000000
                                                        10.210000       0.000000
                                                         3.838000       0.000000
                                                         0.746600       0.000000
                                                         0.224800       0.232679

                          3       1    1dx2              0.817000       1.155575
                          3       1    1dxy              0.817000       2.001514
                          3       1    1dxz              0.817000       2.001514
                          3       1    1dy2              0.817000       1.155575
                          3       1    1dyz              0.817000       2.001514
                          3       1    1dz2              0.817000       1.155575

     RI Auxiliary Basis Set                                        cc-pVDZ-RIFIT

       Number of orbital shell sets:                                          18
       Number of orbital shells:                                              18
       Number of primitive Cartesian functions:                               18
       Number of Cartesian basis functions:                                   66
       Number of spherical basis functions:                                   56
       Norm type:                                                              2

       Normalised Cartesian orbitals:

                        Set   Shell   Orbital            Exponent    Coefficient

                          1       1    1s                0.327261       0.308376

                          2       1    1px               0.461104       0.541613
                          2       1    1py               0.461104       0.541613
                          2       1    1pz               0.461104       0.541613

                          3       1    1dx2              0.477850       0.452033
                          3       1    1dxy              0.477850       0.782943
                          3       1    1dxz              0.477850       0.782943
                          3       1    1dy2              0.477850       0.452033
                          3       1    1dyz              0.477850       0.782943
                          3       1    1dz2              0.477850       0.452033

                          4       1    1s                0.723539       0.559122

                          5       1    1px               1.094610       1.595932
                          5       1    1py               1.094610       1.595932
                          5       1    1pz               1.094610       1.595932

                          6       1    1s                1.123240       0.777615

                          7       1    1dx2              1.285370       2.553929
                          7       1    1dxy              1.285370       4.423534
                          7       1    1dxz              1.285370       4.423534
                          7       1    1dy2              1.285370       2.553929
                          7       1    1dyz              1.285370       4.423534
                          7       1    1dz2              1.285370       2.553929

                          8       1    1fx3              1.334730       2.818965
                          8       1    1fx2y             1.334730       6.303397
                          8       1    1fx2z             1.334730       6.303397
                          8       1    1fxy2             1.334730       6.303397
                          8       1    1fxyz             1.334730      10.917804
                          8       1    1fxz2             1.334730       6.303397
                          8       1    1fy3              1.334730       2.818965
                          8       1    1fy2z             1.334730       6.303397
                          8       1    1fyz2             1.334730       6.303397
                          8       1    1fz3              1.334730       2.818965

                          9       1    1s                2.344260       1.350251

                         10       1    1px               2.533640       4.556393
                         10       1    1py               2.533640       4.556393
                         10       1    1pz               2.533640       4.556393

                         11       1    1fx3              3.401180      23.127095
                         11       1    1fx2y             3.401180      51.713757
                         11       1    1fx2z             3.401180      51.713757
                         11       1    1fxy2             3.401180      51.713757
                         11       1    1fxyz             3.401180      89.570854
                         11       1    1fxz2             3.401180      51.713757
                         11       1    1fy3              3.401180      23.127095
                         11       1    1fy2z             3.401180      51.713757
                         11       1    1fyz2             3.401180      51.713757
                         11       1    1fz3              3.401180      23.127095

                         12       1    1dx2              3.428160      14.215638
                         12       1    1dxy              3.428160      24.622207
                         12       1    1dxz              3.428160      24.622207
                         12       1    1dy2              3.428160      14.215638
                         12       1    1dyz              3.428160      24.622207
                         12       1    1dz2              3.428160      14.215638

                         13       1    1s                7.624360       3.270112

                         14       1    1px               8.552990      20.849111
                         14       1    1py               8.552990      20.849111
                         14       1    1pz               8.552990      20.849111

                         15       1    1dx2             12.327800     133.493224
                         15       1    1dxy             12.327800     231.217046
                         15       1    1dxz             12.327800     231.217046
                         15       1    1dy2             12.327800     133.493224
                         15       1    1dyz             12.327800     231.217046
                         15       1    1dz2             12.327800     133.493224

                         16       1    1s               20.467900       6.858278

                         17       1    1px              29.237300      96.908455
                         17       1    1py              29.237300      96.908455
                         17       1    1pz              29.237300      96.908455

                         18       1    1s               87.686400      20.422517

       Atomic covalent radius [Angstrom]:                                  0.750

       Atomic van der Waals radius [Angstrom]:                             1.550

     The atoms of this atomic kind are PAW atoms (GAPW):
       Hard Gaussian function radius:                                      1.512
       Rho0 radius:                                                        1.512
       Maximum GTO radius used for PAW projector construction:            24.566

     GAPW Soft Basis Set                                            cc-pVDZ_soft

       Number of orbital shell sets:                                           3
       Number of orbital shells:                                               6
       Number of primitive Cartesian functions:                                7
       Number of Cartesian basis functions:                                   15
       Number of spherical basis functions:                                   14
       Norm type:                                                              2

       Normalised Cartesian orbitals:

                        Set   Shell   Orbital            Exponent    Coefficient

                          1       1    1px               2.917000       1.180072
                                                         0.797300       0.548036
                                                         0.218500       0.098423
                          1       1    1py               2.917000       1.180072
                                                         0.797300       0.548036
                                                         0.218500       0.098423
                          1       1    1pz               2.917000       1.180072
                                                         0.797300       0.548036
                                                         0.218500       0.098423

                          1       2    2px               2.917000       0.000000
                                                         0.797300       0.000000
                                                         0.218500       0.212939
                          1       2    2py               2.917000       0.000000
                                                         0.797300       0.000000
                                                         0.218500       0.212939
                          1       2    2pz               2.917000       0.000000
                                                         0.797300       0.000000
                                                         0.218500       0.212939

                          2       1    1s                3.838000       0.543758
                                                         0.746600       0.008838
                                                         0.224800      -0.000666

                          2       2    2s                3.838000      -0.238093
                                                         0.746600       0.314268
                                                         0.224800       0.134678

                          2       3    3s                3.838000       0.000000
                                                         0.746600       0.000000
                                                         0.224800       0.232679

                          3       1    1dx2              0.817000       1.155575
                          3       1    1dxy              0.817000       2.001514
                          3       1    1dxz              0.817000       2.001514
                          3       1    1dy2              0.817000       1.155575
                          3       1    1dyz              0.817000       2.001514
                          3       1    1dz2              0.817000       1.155575

     AE Potential information for                                            ALL

       Description:                                       All-electron potential
                                          Krack, Parrinello, PCCP 2, 2105 (2000)

       Gaussian exponent of the core charge distribution:               5.979100
       Electronic configuration (s p d ...):                           4   3   0

  2. Atomic kind: H                                     Number of atoms:       8

     Orbital Basis Set                                                   cc-pVDZ

       Number of orbital shell sets:                                           2
       Number of orbital shells:                                               3
       Number of primitive Cartesian functions:                                5
       Number of Cartesian basis functions:                                    5
       Number of spherical basis functions:                                    5
       Norm type:                                                              2

       Normalised Cartesian orbitals:

                        Set   Shell   Orbital            Exponent    Coefficient

                          1       1    1s               13.010000       0.096107
                                                         1.962000       0.163020
                                                         0.444600       0.185545
                                                         0.122000       0.073744

                          1       2    2s               13.010000       0.000000
                                                         1.962000       0.000000
                                                         0.444600       0.000000
                                                         0.122000       0.147123

                          2       1    1px               0.727000       0.956881
                          2       1    1py               0.727000       0.956881
                          2       1    1pz               0.727000       0.956881

     RI Auxiliary Basis Set                                        cc-pVDZ-RIFIT

       Number of orbital shell sets:                                           6
       Number of orbital shells:                                               6
       Number of primitive Cartesian functions:                                6
       Number of Cartesian basis functions:                                   15
       Number of spherical basis functions:                                   14
       Norm type:                                                              2

       Normalised Cartesian orbitals:

                        Set   Shell   Orbital            Exponent    Coefficient

                          1       1    1s                0.291662       0.282859

                          2       1    1px               0.986401       1.401222
                          2       1    1py               0.986401       1.401222
                          2       1    1pz               0.986401       1.401222

                          3       1    1s                1.142965       0.787834

                          4       1    1dx2              1.172083       2.173136
                          4       1    1dxy              1.172083       3.763982
                          4       1    1dxz              1.172083       3.763982
                          4       1    1dy2              1.172083       2.173136
                          4       1    1dyz              1.172083       3.763982
                          4       1    1dz2              1.172083       2.173136

                          5       1    1px               1.914964       3.211004
                          5       1    1py               1.914964       3.211004
                          5       1    1pz               1.914964       3.211004

                          6       1    1s                5.115890       2.424381

       Atomic covalent radius [Angstrom]:                                  0.320

       Atomic van der Waals radius [Angstrom]:                             1.090

     The atoms of this atomic kind are PAW atoms (GAPW):
       Hard Gaussian function radius:                                      1.200
       Rho0 radius:                                                        1.200
       Maximum GTO radius used for PAW projector construction:            24.566

     GAPW Soft Basis Set                                            cc-pVDZ_soft

       Number of orbital shell sets:                                           2
       Number of orbital shells:                                               3
       Number of primitive Cartesian functions:                                4
       Number of Cartesian basis functions:                                    5
       Number of spherical basis functions:                                    5
       Norm type:                                                              2

       Normalised Cartesian orbitals:

                        Set   Shell   Orbital            Exponent    Coefficient

                          1       1    1s                1.962000       0.163020
                                                         0.444600       0.185545
                                                         0.122000       0.073744

                          1       2    2s                1.962000       0.000000
                                                         0.444600       0.000000
                                                         0.122000       0.147123

                          2       1    1px               0.727000       0.956881
                          2       1    1py               0.727000       0.956881
                          2       1    1pz               0.727000       0.956881

     AE Potential information for                                            ALL

       Description:                                       All-electron potential
                                          Krack, Parrinello, PCCP 2, 2105 (2000)

       Gaussian exponent of the core charge distribution:              12.500000
       Electronic configuration (s p d ...):                           1   0   0

  3. Atomic kind: O                                     Number of atoms:       4

     Orbital Basis Set                                                   cc-pVDZ

       Number of orbital shell sets:                                           3
       Number of orbital shells:                                               6
       Number of primitive Cartesian functions:                               14
       Number of Cartesian basis functions:                                   15
       Number of spherical basis functions:                                   14
       Norm type:                                                              2

       Normalised Cartesian orbitals:

                        Set   Shell   Orbital            Exponent    Coefficient

                          1       1    1px              17.700000       2.226162
                                                         3.854000       1.761976
                                                         1.046000       0.767079
                                                         0.275300       0.130905
                          1       1    1py              17.700000       2.226162
                                                         3.854000       1.761976
                                                         1.046000       0.767079
                                                         0.275300       0.130905
                          1       1    1pz              17.700000       2.226162
                                                         3.854000       1.761976
                                                         1.046000       0.767079
                                                         0.275300       0.130905

                          1       2    2px              17.700000       0.000000
                                                         3.854000       0.000000
                                                         1.046000       0.000000
                                                         0.275300       0.284248
                          1       2    2py              17.700000       0.000000
                                                         3.854000       0.000000
                                                         1.046000       0.000000
                                                         0.275300       0.284248
                          1       2    2pz              17.700000       0.000000
                                                         3.854000       0.000000
                                                         1.046000       0.000000
                                                         0.275300       0.284248

                          2       1    1s            11720.000000       0.569986
                                                      1759.000000       1.058881
                                                       400.800000       1.777168
                                                       113.700000       2.600710
                                                        37.030000       3.028357
                                                        13.270000       2.223504
                                                         5.025000       0.648119
                                                         1.013000       0.011124
                                                         0.302300      -0.000751

                          2       2    2s            11720.000000      -0.128448
                                                      1759.000000      -0.244491
                                                       400.800000      -0.400097
                                                       113.700000      -0.638166
                                                        37.030000      -0.758785
                                                        13.270000      -0.819649
                                                         5.025000      -0.279757
                                                         1.013000       0.401106
                                                         0.302300       0.166422

                          2       3    3s            11720.000000       0.000000
                                                      1759.000000       0.000000
                                                       400.800000       0.000000
                                                       113.700000       0.000000
                                                        37.030000       0.000000
                                                        13.270000       0.000000
                                                         5.025000       0.000000
                                                         1.013000       0.000000
                                                         0.302300       0.290562

                          3       1    1dx2              1.185000       2.215218
                          3       1    1dxy              1.185000       3.836871
                          3       1    1dxz              1.185000       3.836871
                          3       1    1dy2              1.185000       2.215218
                          3       1    1dyz              1.185000       3.836871
                          3       1    1dz2              1.185000       2.215218

     RI Auxiliary Basis Set                                        cc-pVDZ-RIFIT

       Number of orbital shell sets:                                          18
       Number of orbital shells:                                              18
       Number of primitive Cartesian functions:                               18
       Number of Cartesian basis functions:                                   66
       Number of spherical basis functions:                                   56
       Norm type:                                                              2

       Normalised Cartesian orbitals:

                        Set   Shell   Orbital            Exponent    Coefficient

                          1       1    1s                0.421376       0.372746

                          2       1    1dx2              0.592201       0.658007
                          2       1    1dxy              0.592201       1.139701
                          2       1    1dxz              0.592201       1.139701
                          2       1    1dy2              0.592201       0.658007
                          2       1    1dyz              0.592201       1.139701
                          2       1    1dz2              0.592201       0.658007

                          3       1    1px               0.612763       0.772780
                          3       1    1py               0.612763       0.772780
                          3       1    1pz               0.612763       0.772780

                          4       1    1s                0.905061       0.661330

                          5       1    1s                1.396380       0.915509

                          6       1    1px               1.403870       2.178205
                          6       1    1py               1.403870       2.178205
                          6       1    1pz               1.403870       2.178205

                          7       1    1fx3              1.790210       5.457433
                          7       1    1fx2y             1.790210      12.203191
                          7       1    1fx2z             1.790210      12.203191
                          7       1    1fxy2             1.790210      12.203191
                          7       1    1fxyz             1.790210      21.136547
                          7       1    1fxz2             1.790210      12.203191
                          7       1    1fy3              1.790210       5.457433
                          7       1    1fy2z             1.790210      12.203191
                          7       1    1fyz2             1.790210      12.203191
                          7       1    1fz3              1.790210       5.457433

                          8       1    1dx2              1.812210       4.658803
                          8       1    1dxy              1.812210       8.069284
                          8       1    1dxz              1.812210       8.069284
                          8       1    1dy2              1.812210       4.658803
                          8       1    1dyz              1.812210       8.069284
                          8       1    1dz2              1.812210       4.658803

                          9       1    1s                2.939600       1.600023

                         10       1    1px               3.205940       6.114829
                         10       1    1py               3.205940       6.114829
                         10       1    1pz               3.205940       6.114829

                         11       1    1fx3              4.221940      37.614611
                         11       1    1fx2y             4.221940      84.108828
                         11       1    1fx2z             4.221940      84.108828
                         11       1    1fxy2             4.221940      84.108828
                         11       1    1fxyz             4.221940     145.680763
                         11       1    1fxz2             4.221940      84.108828
                         11       1    1fy3              4.221940      37.614611
                         11       1    1fy2z             4.221940      84.108828
                         11       1    1fyz2             4.221940      84.108828
                         11       1    1fz3              4.221940      37.614611

                         12       1    1dx2              4.520870      23.070021
                         12       1    1dxy              4.520870      39.958448
                         12       1    1dxz              4.520870      39.958448
                         12       1    1dy2              4.520870      23.070021
                         12       1    1dyz              4.520870      39.958448
                         12       1    1dz2              4.520870      23.070021

                         13       1    1s                9.551480       3.872247

                         14       1    1px              10.881700      28.171568
                         14       1    1py              10.881700      28.171568
                         14       1    1pz              10.881700      28.171568

                         15       1    1dx2             15.251100     193.725371
                         15       1    1dxy             15.251100     335.542185
                         15       1    1dxz             15.251100     335.542185
                         15       1    1dy2             15.251100     193.725371
                         15       1    1dyz             15.251100     335.542185
                         15       1    1dz2             15.251100     193.725371

                         16       1    1s               25.578000       8.106064

                         17       1    1px              36.129200     126.259196
                         17       1    1py              36.129200     126.259196
                         17       1    1pz              36.129200     126.259196

                         18       1    1s              109.461000      24.118742

       Atomic covalent radius [Angstrom]:                                  0.730

       Atomic van der Waals radius [Angstrom]:                             1.520

     The atoms of this atomic kind are PAW atoms (GAPW):
       Hard Gaussian function radius:                                      1.512
       Rho0 radius:                                                        1.512
       Maximum GTO radius used for PAW projector construction:            24.566

     GAPW Soft Basis Set                                            cc-pVDZ_soft

       Number of orbital shell sets:                                           3
       Number of orbital shells:                                               6
       Number of primitive Cartesian functions:                                6
       Number of Cartesian basis functions:                                   15
       Number of spherical basis functions:                                   14
       Norm type:                                                              2

       Normalised Cartesian orbitals:

                        Set   Shell   Orbital            Exponent    Coefficient

                          1       1    1px               3.854000       1.761976
                                                         1.046000       0.767079
                                                         0.275300       0.130905
                          1       1    1py               3.854000       1.761976
                                                         1.046000       0.767079
                                                         0.275300       0.130905
                          1       1    1pz               3.854000       1.761976
                                                         1.046000       0.767079
                                                         0.275300       0.130905

                          1       2    2px               3.854000       0.000000
                                                         1.046000       0.000000
                                                         0.275300       0.284248
                          1       2    2py               3.854000       0.000000
                                                         1.046000       0.000000
                                                         0.275300       0.284248
                          1       2    2pz               3.854000       0.000000
                                                         1.046000       0.000000
                                                         0.275300       0.284248

                          2       1    1s                1.013000       0.011124
                                                         0.302300      -0.000751

                          2       2    2s                1.013000       0.401106
                                                         0.302300       0.166422

                          2       3    3s                1.013000       0.000000
                                                         0.302300       0.290562

                          3       1    1dx2              1.185000       2.215218
                          3       1    1dxy              1.185000       3.836871
                          3       1    1dxz              1.185000       3.836871
                          3       1    1dy2              1.185000       2.215218
                          3       1    1dyz              1.185000       3.836871
                          3       1    1dz2              1.185000       2.215218

     AE Potential information for                                            ALL

       Description:                                       All-electron potential
                                          Krack, Parrinello, PCCP 2, 2105 (2000)

       Gaussian exponent of the core charge distribution:               8.154466
       Electronic configuration (s p d ...):                           4   4   0

  4. Atomic kind: C                                     Number of atoms:       4

     Orbital Basis Set                                                   cc-pVDZ

       Number of orbital shell sets:                                           3
       Number of orbital shells:                                               6
       Number of primitive Cartesian functions:                               14
       Number of Cartesian basis functions:                                   15
       Number of spherical basis functions:                                   14
       Norm type:                                                              2

       Normalised Cartesian orbitals:

                        Set   Shell   Orbital            Exponent    Coefficient

                          1       1    1px               9.439000       0.898722
                                                         2.002000       0.711071
                                                         0.545600       0.339917
                                                         0.151700       0.063270
                          1       1    1py               9.439000       0.898722
                                                         2.002000       0.711071
                                                         0.545600       0.339917
                                                         0.151700       0.063270
                          1       1    1pz               9.439000       0.898722
                                                         2.002000       0.711071
                                                         0.545600       0.339917
                                                         0.151700       0.063270

                          1       2    2px               9.439000       0.000000
                                                         2.002000       0.000000
                                                         0.545600       0.000000
                                                         0.151700       0.134950
                          1       2    2py               9.439000       0.000000
                                                         2.002000       0.000000
                                                         0.545600       0.000000
                                                         0.151700       0.134950
                          1       2    2pz               9.439000       0.000000
                                                         2.002000       0.000000
                                                         0.545600       0.000000
                                                         0.151700       0.134950

                          2       1    1s             6665.000000       0.363803
                                                      1000.000000       0.675392
                                                       228.000000       1.132301
                                                        64.710000       1.654004
                                                        21.060000       1.924978
                                                         7.495000       1.448149
                                                         2.797000       0.439427
                                                         0.521500       0.006650
                                                         0.159600      -0.000574

                          2       2    2s             6665.000000      -0.076756
                                                      1000.000000      -0.146257
                                                       228.000000      -0.239407
                                                        64.710000      -0.379069
                                                        21.060000      -0.448104
                                                         7.495000      -0.484201
                                                         2.797000      -0.196168
                                                         0.521500       0.238162
                                                         0.159600       0.104468

                          2       3    3s             6665.000000       0.000000
                                                      1000.000000       0.000000
                                                       228.000000       0.000000
                                                        64.710000       0.000000
                                                        21.060000       0.000000
                                                         7.495000       0.000000
                                                         2.797000       0.000000
                                                         0.521500       0.000000
                                                         0.159600       0.179964

                          3       1    1dx2              0.550000       0.578155
                          3       1    1dxy              0.550000       1.001394
                          3       1    1dxz              0.550000       1.001394
                          3       1    1dy2              0.550000       0.578155
                          3       1    1dyz              0.550000       1.001394
                          3       1    1dz2              0.550000       0.578155

     RI Auxiliary Basis Set                                        cc-pVDZ-RIFIT

       Number of orbital shell sets:                                          18
       Number of orbital shells:                                              18
       Number of primitive Cartesian functions:                               18
       Number of Cartesian basis functions:                                   66
       Number of spherical basis functions:                                   56
       Norm type:                                                              2

       Normalised Cartesian orbitals:

                        Set   Shell   Orbital            Exponent    Coefficient

                          1       1    1s                0.206796       0.218558

                          2       1    1px               0.321667       0.345301
                          2       1    1py               0.321667       0.345301
                          2       1    1pz               0.321667       0.345301

                          3       1    1dx2              0.340842       0.250252
                          3       1    1dxy              0.340842       0.433449
                          3       1    1dxz              0.340842       0.433449
                          3       1    1dy2              0.340842       0.250252
                          3       1    1dyz              0.340842       0.433449
                          3       1    1dz2              0.340842       0.250252

                          4       1    1s                0.409072       0.364552

                          5       1    1px               0.754465       1.002280
                          5       1    1py               0.754465       1.002280
                          5       1    1pz               0.754465       1.002280

                          6       1    1s                0.782697       0.593069

                          7       1    1fx3              0.895756       1.149162
                          7       1    1fx2y             0.895756       2.569605
                          7       1    1fx2z             0.895756       2.569605
                          7       1    1fxy2             0.895756       2.569605
                          7       1    1fxyz             0.895756       4.450686
                          7       1    1fxz2             0.895756       2.569605
                          7       1    1fy3              0.895756       1.149162
                          7       1    1fy2z             0.895756       2.569605
                          7       1    1fyz2             0.895756       2.569605
                          7       1    1fz3              0.895756       1.149162

                          8       1    1dx2              0.922515       1.429266
                          8       1    1dxy              0.922515       2.475561
                          8       1    1dxz              0.922515       2.475561
                          8       1    1dy2              0.922515       1.429266
                          8       1    1dyz              0.922515       2.475561
                          8       1    1dz2              0.922515       1.429266

                          9       1    1s                1.513330       0.972434

                         10       1    1px               1.720600       2.808924
                         10       1    1py               1.720600       2.808924
                         10       1    1pz               1.720600       2.808924

                         11       1    1dx2              2.678440       9.230024
                         11       1    1dxy              2.678440      15.986870
                         11       1    1dxz              2.678440      15.986870
                         11       1    1dy2              2.678440       9.230024
                         11       1    1dyz              2.678440      15.986870
                         11       1    1dz2              2.678440       9.230024

                         12       1    1fx3              2.742930      14.254027
                         12       1    1fx2y             2.742930      31.872974
                         12       1    1fx2z             2.742930      31.872974
                         12       1    1fxy2             2.742930      31.872974
                         12       1    1fxyz             2.742930      55.205610
                         12       1    1fxz2             2.742930      31.872974
                         12       1    1fy3              2.742930      14.254027
                         12       1    1fy2z             2.742930      31.872974
                         12       1    1fyz2             2.742930      31.872974
                         12       1    1fz3              2.742930      14.254027

                         13       1    1s                4.772770       2.301378

                         14       1    1px               6.005230      13.399918
                         14       1    1py               6.005230      13.399918
                         14       1    1pz               6.005230      13.399918

                         15       1    1dx2             10.171500      95.352748
                         15       1    1dxy             10.171500     165.155804
                         15       1    1dxz             10.171500     165.155804
                         15       1    1dy2             10.171500      95.352748
                         15       1    1dyz             10.171500     165.155804
                         15       1    1dz2             10.171500      95.352748

                         16       1    1s               13.804500       5.104176

                         17       1    1px              20.885100      63.640823
                         17       1    1py              20.885100      63.640823
                         17       1    1pz              20.885100      63.640823

                         18       1    1s               62.745300      15.888979

       Atomic covalent radius [Angstrom]:                                  0.770

       Atomic van der Waals radius [Angstrom]:                             1.700

     The atoms of this atomic kind are PAW atoms (GAPW):
       Hard Gaussian function radius:                                      1.512
       Rho0 radius:                                                        1.512
       Maximum GTO radius used for PAW projector construction:            24.566

     GAPW Soft Basis Set                                            cc-pVDZ_soft

       Number of orbital shell sets:                                           3
       Number of orbital shells:                                               6
       Number of primitive Cartesian functions:                                7
       Number of Cartesian basis functions:                                   15
       Number of spherical basis functions:                                   14
       Norm type:                                                              2

       Normalised Cartesian orbitals:

                        Set   Shell   Orbital            Exponent    Coefficient

                          1       1    1px               2.002000       0.711071
                                                         0.545600       0.339917
                                                         0.151700       0.063270
                          1       1    1py               2.002000       0.711071
                                                         0.545600       0.339917
                                                         0.151700       0.063270
                          1       1    1pz               2.002000       0.711071
                                                         0.545600       0.339917
                                                         0.151700       0.063270

                          1       2    2px               2.002000       0.000000
                                                         0.545600       0.000000
                                                         0.151700       0.134950
                          1       2    2py               2.002000       0.000000
                                                         0.545600       0.000000
                                                         0.151700       0.134950
                          1       2    2pz               2.002000       0.000000
                                                         0.545600       0.000000
                                                         0.151700       0.134950

                          2       1    1s                2.797000       0.439427
                                                         0.521500       0.006650
                                                         0.159600      -0.000574

                          2       2    2s                2.797000      -0.196168
                                                         0.521500       0.238162
                                                         0.159600       0.104468

                          2       3    3s                2.797000       0.000000
                                                         0.521500       0.000000
                                                         0.159600       0.179964

                          3       1    1dx2              0.550000       0.578155
                          3       1    1dxy              0.550000       1.001394
                          3       1    1dxz              0.550000       1.001394
                          3       1    1dy2              0.550000       0.578155
                          3       1    1dyz              0.550000       1.001394
                          3       1    1dz2              0.550000       0.578155

     AE Potential information for                                            ALL

       Description:                                       All-electron potential
                                          Krack, Parrinello, PCCP 2, 2105 (2000)

       Gaussian exponent of the core charge distribution:               4.109048
       Electronic configuration (s p d ...):                           4   2   0


 MOLECULE KIND INFORMATION


 All atoms are their own molecule, skipping detailed information


 TOTAL NUMBERS AND MAXIMUM NUMBERS

  Total number of            - Atomic kinds:                                   4
                             - Atoms:                                         18
                             - Shell sets:                                    46
                             - Shells:                                        84
                             - Primitive Cartesian functions:                180
                             - Cartesian basis functions:                    190
                             - Spherical basis functions:                    180

  Maximum angular momentum of the orbital basis functions:                     2


 MODULE QUICKSTEP: ATOMIC COORDINATES IN ANGSTROM

   Atom Kind Element         X             Y             Z       Z(eff)     Mass
      1    1 N     7     14.303146     13.954064     13.639284   7.0000  14.0067
      2    2 H     1     13.489354     13.626214     14.152399   1.0000   1.0079
      3    3 O     8     16.484892     14.827733     14.007973   8.0000  15.9994
      4    2 H     1     16.558110     14.733528     13.031790   1.0000   1.0079
      5    3 O     8     15.354579     14.090032     11.617430   8.0000  15.9994
      6    4 C     6     15.110033     15.011202     14.243665   6.0000  12.0107
      7    4 C     6     14.469069     13.624411     12.336214   6.0000  12.0107
      8    2 H     1     13.738973     12.871396     11.973048   1.0000   1.0079
      9    2 H     1     15.232586     14.012247     16.151600   1.0000   1.0079
     10    2 H     1     14.767417     15.987777     13.848392   1.0000   1.0079
     11    1 N     7     15.696848     16.045962     16.360710   7.0000  14.0067
     12    2 H     1     16.510642     16.373815     15.847599   1.0000   1.0079
     13    3 O     8     13.515107     15.172286     15.992020   8.0000  15.9994
     14    2 H     1     13.441890     15.266489     16.968203   1.0000   1.0079
     15    3 O     8     14.645430     15.909960     18.382570   8.0000  15.9994
     16    4 C     6     14.889967     14.988821     15.756328   6.0000  12.0107
     17    4 C     6     15.530918     16.375615     17.663779   6.0000  12.0107
     18    2 H     1     16.261032     17.128604     18.026960   1.0000   1.0079



 SCF PARAMETERS         Density guess:                                    ATOMIC
                        --------------------------------------------------------
                        max_scf:                                             500
                        max_scf_history:                                       0
                        max_diis:                                              4
                        --------------------------------------------------------
                        eps_scf:                                        1.00E-06
                        eps_scf_history:                                0.00E+00
                        eps_diis:                                       1.00E-01
                        eps_eigval:                                     1.00E-05
                        --------------------------------------------------------
                        level_shift [a.u.]:                             0.000000
                        added MOs                                       141    0
                        --------------------------------------------------------
                        Mixing method:                            BROYDEN_MIXING
                                                charge density mixing in g-space
                        --------------------------------------------------------
                        No outer SCF

 PW_GRID| Information for grid number                                          1
 PW_GRID| Grid distributed over                                   216 processors
 PW_GRID| Real space group dimensions                                   216    1
 PW_GRID| the grid is blocked:                                                NO
 PW_GRID| Cutoff [a.u.]                                                    250.0
 PW_GRID| spherical cutoff:                                                   NO
 PW_GRID|   Bounds   1           -202     202                Points:         405
 PW_GRID|   Bounds   2           -202     202                Points:         405
 PW_GRID|   Bounds   3           -202     202                Points:         405
 PW_GRID| Volume element (a.u.^3)  0.2743E-02     Volume (a.u.^3)    182205.0337
 PW_GRID| Grid span                                                    FULLSPACE
 PW_GRID|   Distribution                         Average         Max         Min
 PW_GRID|   G-Vectors                           307546.9      307800      307395
 PW_GRID|   G-Rays                                 759.4         760         759
 PW_GRID|   Real Space Points                   307546.9      328050      164025

 PW_GRID| Information for grid number                                          2
 PW_GRID| Number of the reference grid                                         1
 PW_GRID| Grid distributed over                                   216 processors
 PW_GRID| Real space group dimensions                                   216    1
 PW_GRID| the grid is blocked:                                                NO
 PW_GRID| Cutoff [a.u.]                                                     83.3
 PW_GRID| spherical cutoff:                                                   NO
 PW_GRID|   Bounds   1           -120     119                Points:         240
 PW_GRID|   Bounds   2           -120     119                Points:         240
 PW_GRID|   Bounds   3           -120     119                Points:         240
 PW_GRID| Volume element (a.u.^3)  0.1318E-01     Volume (a.u.^3)    182205.0337
 PW_GRID| Grid span                                                    FULLSPACE
 PW_GRID|   Distribution                         Average         Max         Min
 PW_GRID|   G-Vectors                            64000.0       64560       63360
 PW_GRID|   G-Rays                                 266.7         269         264
 PW_GRID|   Real Space Points                    64000.0      115200       57600

 PW_GRID| Information for grid number                                          3
 PW_GRID| Number of the reference grid                                         1
 PW_GRID| Grid distributed over                                   216 processors
 PW_GRID| Real space group dimensions                                    12   18
 PW_GRID| the grid is blocked:                                                NO
 PW_GRID| Cutoff [a.u.]                                                     27.8
 PW_GRID| spherical cutoff:                                                   NO
 PW_GRID|   Bounds   1            -67      67                Points:         135
 PW_GRID|   Bounds   2            -67      67                Points:         135
 PW_GRID|   Bounds   3            -67      67                Points:         135
 PW_GRID| Volume element (a.u.^3)  0.7406E-01     Volume (a.u.^3)    182205.0337
 PW_GRID| Grid span                                                    FULLSPACE
 PW_GRID|   Distribution                         Average         Max         Min
 PW_GRID|   G-Vectors                            11390.6       11610       11205
 PW_GRID|   G-Rays                                  84.4          86          83
 PW_GRID|   Real Space Points                    11390.6       12960       10395

 PW_GRID| Information for grid number                                          4
 PW_GRID| Number of the reference grid                                         1
 PW_GRID| Grid distributed over                                   216 processors
 PW_GRID| Real space group dimensions                                    12   18
 PW_GRID| the grid is blocked:                                                NO
 PW_GRID| Cutoff [a.u.]                                                      9.3
 PW_GRID| spherical cutoff:                                                   NO
 PW_GRID|   Bounds   1            -40      39                Points:          80
 PW_GRID|   Bounds   2            -40      39                Points:          80
 PW_GRID|   Bounds   3            -40      39                Points:          80
 PW_GRID| Volume element (a.u.^3)  0.3559         Volume (a.u.^3)    182205.0337
 PW_GRID| Grid span                                                    FULLSPACE
 PW_GRID|   Distribution                         Average         Max         Min
 PW_GRID|   G-Vectors                             2370.4        2480        2240
 PW_GRID|   G-Rays                                  29.6          31          28
 PW_GRID|   Real Space Points                     2370.4        2800        1920

 POISSON| Solver                                                         WAVELET
 POISSON| Wavelet| Scaling function                                           40
 POISSON| Periodicity                                                       NONE

 RS_GRID| Information for grid number                                          1
 RS_GRID|   Bounds   1           -202     202                Points:         405
 RS_GRID|   Bounds   2           -202     202                Points:         405
 RS_GRID|   Bounds   3           -202     202                Points:         405
 RS_GRID| Real space distribution over                                  6 groups
 RS_GRID| Real space distribution along direction                              1
 RS_GRID| Border size                                                         34
 RS_GRID| Real space distribution over                                  6 groups
 RS_GRID| Real space distribution along direction                              2
 RS_GRID| Border size                                                         34
 RS_GRID| Real space distribution over                                  6 groups
 RS_GRID| Real space distribution along direction                              3
 RS_GRID| Border size                                                         34
 RS_GRID|   Distribution                         Average         Max         Min
 RS_GRID|   Planes                                 135.5         136         135
 RS_GRID|   Distribution                         Average         Max         Min
 RS_GRID|   Planes                                 135.5         136         135
 RS_GRID|   Distribution                         Average         Max         Min
 RS_GRID|   Planes                                 135.5         136         135

 RS_GRID| Information for grid number                                          2
 RS_GRID|   Bounds   1           -120     119                Points:         240
 RS_GRID|   Bounds   2           -120     119                Points:         240
 RS_GRID|   Bounds   3           -120     119                Points:         240
 RS_GRID| Real space distribution over                                  6 groups
 RS_GRID| Real space distribution along direction                              1
 RS_GRID| Border size                                                         34
 RS_GRID| Real space distribution over                                  6 groups
 RS_GRID| Real space distribution along direction                              2
 RS_GRID| Border size                                                         34
 RS_GRID| Real space distribution over                                  6 groups
 RS_GRID| Real space distribution along direction                              3
 RS_GRID| Border size                                                         34
 RS_GRID|   Distribution                         Average         Max         Min
 RS_GRID|   Planes                                 108.0         108         108
[...]
 scf_env_do_scf                       1  3.0    0.000    0.000   71.203   71.209
 scf_env_do_scf_inner_loop           63  4.0    0.002    0.004   71.203   71.209
 fft3d_ps                          4937 13.1   22.989   24.883   65.015   66.353
 ps_wavelet_solve                   243 10.5   25.152   36.277   60.371   60.622
 qs_ks_update_qs_env                 63  5.0    0.000    0.001   53.282   53.286
 rebuild_ks_matrix                   63  6.0    0.000    0.000   53.276   53.279
 qs_ks_build_kohn_sham_matrix        63  7.0    0.009    0.011   53.275   53.279
 mp_alltoall_z22v                  4937 15.1   36.341   45.289   36.341   45.289
 qs_rho_update_rho_low              245  7.9    0.003    0.003   39.774   39.780
 calculate_rho_elec                 245  8.9    0.534    0.572   39.322   39.329
 mp_alltoall_d54                    243 11.5   13.560   33.592   13.560   33.592
 xc_pw_derive                      1461 11.0    0.014    0.019   31.197   32.527
 tddfpt_apply_xc_analytic           180  9.0    0.124    0.156   28.160   28.299
 density_rs2pw                      245  9.9    0.014    0.017   25.356   26.970
 integrate_v_rspace                 243  9.0    0.006    0.007   25.625   26.041
 mp_alltoall_d45                    244 11.5   21.518   24.002   21.518   24.002
 yz_to_x                           1950 14.5    1.778    2.151   18.703   24.001
 x_to_yz                           2011 13.8    2.354    2.659   21.603   23.184
 integrate_four_center              423  9.9    8.516   16.419   22.182   22.298
 potential_pw2rs                    243 10.0    0.051    0.068   21.824   22.250
 xc_pw_divergence                   243 10.7    0.008    0.010   21.023   22.136
 transfer_pw2rs                    1216 10.9    0.016    0.019   20.239   20.473
 tddfpt_apply_hfx                     9  8.0    0.003    0.004   20.368   20.368
 transfer_rs2pw                    1225 10.9    0.029    0.060   18.294   19.834
 xc_calc_2nd_deriv_analytical       900 10.1    0.869    1.003   16.489   16.597
 tddft_hfx_matrix                   360  9.0    0.010    0.011   16.173   16.265
 mp_sync                           2236 11.5    8.312   15.074    8.312   15.074
 mp_waitany                       61530 12.8   12.772   14.957   12.772   14.957
 grid_collocate_task_list           245  9.9   12.892   14.812   12.892   14.812
 mp_alltoall_d11v                 15788 11.7    9.739   12.988    9.739   12.988
 prepare_gapw_den                   244  8.7    0.004    0.005   11.681   11.840
 transfer_pw2rs_250                 487 11.7    3.614    4.030   11.265   11.548
 qs_vxc_create                       63  8.0    0.001    0.001   11.230   11.233
 xc_vxc_pw_create                    63  9.0    0.176    0.202   11.230   11.232
 transfer_rs2pw_250                 490 11.8    3.589    4.102    9.227   10.997
 put_rho0_on_grid                   244  9.7    0.576    0.766   10.566   10.725
 integrate_vhg0_rspace              243  9.5    0.133    0.257   10.431   10.517
 cp_dbcsr_sm_fm_multiply           1126  8.6    0.023    0.026    8.253    8.354
 sum_up_and_integrate                63  8.0    0.001    0.001    6.389    6.415
 hfx_ks_matrix                       63  8.0    0.002    0.003    6.024    6.066
 dbcsr_complete_redistribute       3726 10.5    0.152    0.199    5.746    5.852
 mp_waitall_1                    503334 13.2    4.297    5.568    4.297    5.568
 xc_rho_set_and_dset_create          64 10.0    0.151    0.192    5.174    5.490
 transfer_rs2pw_30                  245 11.9    2.317    2.444    5.260    5.391
 transfer_pw2rs_30                  243 12.0    2.223    2.380    4.994    5.211
 mp_sum_d                          4505  7.7    2.762    5.166    2.762    5.166
 gspace_mixing                       62  5.0    0.135    0.144    4.834    4.834
 mp_sendrecv_dv                  105350 12.9    3.919    4.110    3.919    4.110
 mp_sum_dm                        13290 10.1    3.748    4.011    3.748    4.011
 calculate_xc_2nd_deriv_atom        180  9.0    0.068    1.249    0.160    3.989
 copy_dbcsr_to_fm                  1211  9.3    0.016    0.017    3.866    3.921
 copy_fm_to_dbcsr                  2513  9.6    0.011    0.012    3.771    3.888
 rs_gather_matrices                 243 10.0    0.004    0.007    3.622    3.843
 pw_scatter_p                      2497 12.8    3.188    3.773    3.188    3.773
 grid_integrate_task_list           243 10.0    0.173    3.638    0.173    3.638
 broyden_mixing                      62  6.0    3.345    3.469    3.500    3.549
 gaVxcgb_GC                         486  9.7    0.080    3.230    0.080    3.230
 dbcsr_multiply_generic            1549 10.3    0.069    0.074    3.141    3.201
 pw_gather_p                       2440 13.4    2.677    3.153    2.677    3.153
 cp2k_distribution_to_z_slices      243 10.5    1.134    1.242    2.501    3.055
 fft_wrap_pw1pw2_90                 488 12.0    0.073    0.110    2.518    2.842
 mp_alltoall_i11v                 12390 11.5    2.826    2.830    2.826    2.830
 qs_scf_new_mos                      63  5.0    0.001    0.001    2.675    2.680
 mp_isendrecv_dv                 286380 12.3    1.514    2.675    1.514    2.675
 transfer_pw2rs_90                  243 12.0    0.553    0.613    2.394    2.667
 rs_grid_zero                      1218 11.9    2.518    2.648    2.518    2.648
 cp_fm_syevd                        114  7.2    0.001    0.001    2.610    2.626
 pw_derive                         2190 11.8    2.402    2.577    2.402    2.577
 transfer_rs2pw_90                  245 11.9    0.547    0.659    2.207    2.554
 cp_fm_redistribute_end             114  8.2    1.268    2.419    1.274    2.424
 cp_fm_syevd_base                   114  8.2    1.145    2.295    1.145    2.295
 create_qs_kind_set                   1  2.0    0.000    0.000    2.271    2.272
 read_qs_kind                         4  3.0    1.267    1.296    2.271    2.272
 cp_dbcsr_sm_fm_multiply_core      1126  9.6    0.003    0.003    2.172    2.229
 eigensolver_symm                    63  6.0    0.002    0.002    1.955    1.960
 powell_optimize                 742070 11.0    1.818    1.922    1.818    1.922
 multiply_cannon                   1549 11.3    0.191    0.197    1.856    1.914
 dbcsr_desymmetrize_deep           1212 10.3    0.034    0.038    1.790    1.841
 tddfpt_orthonormalize_psi1_psi      10  6.9    0.024    0.026    1.799    1.800
 pw_copy_to_array                  2440 13.4    1.170    1.792    1.170    1.792
 pw_copy                           3290 11.0    1.655    1.787    1.655    1.787
 cp_dbcsr_plus_fm_fm_t              243  8.5    0.004    0.004    1.704    1.719
 mp_isend_dv                     163472 13.8    1.020    1.637    1.020    1.637
 transfer_pw2rs_10                  243 12.0    0.583    0.686    1.570    1.632
 transfer_rs2pw_10                  245 11.9    0.595    0.638    1.572    1.607
 calc_screening_functions             1 10.0    0.541    0.558    1.456    1.520
 multiply_cannon_loop              1549 12.3    0.357    0.369    1.415    1.492
 integrate_four_center_main         423 10.9    0.097    0.403    1.088    1.482
 pw_poisson_set                     244 10.5    0.006    0.007    1.445    1.476
 tddfpt_apply_energy_diff             9  8.0    0.001    0.001    1.451    1.451
 calc_pair_dist_radii                 1 10.0    0.412    0.430    1.315    1.391
 integrate_four_center_bin        46490 11.9    0.991    1.336    0.991    1.336
 xc_functional_eval                1036 10.9    0.001    0.004    0.888    1.297
 pbe_lda_eval                      1036 11.9    0.887    1.294    0.887    1.294
 tddfpt_compute_residual_vects        8  7.0    0.001    0.001    1.168    1.169
 calculate_vxc_atom                  63  8.0    0.043    0.249    1.167    1.167
 tddfpt_print_nto_analysis            1  6.0    0.002    0.003    1.163    1.164
 parallel_gemm_fm                  1651  8.3    0.002    0.002    1.138    1.162
 parallel_gemm_fm_gemm             1651  9.3    0.002    0.002    1.136    1.160
 cp_fm_gemm                        1651 10.3    1.134    1.158    1.134    1.158
 pw_integral_ab_c1d_c1d_gs          243 10.5    0.790    0.802    1.039    1.141
 mp_isend_dm3                      8790 12.8    0.518    1.131    0.518    1.131
 mp_irecv_dm3                      8790 12.8    0.569    1.094    0.569    1.094
 mp_alltoall_z11v                   976 15.0    1.035    1.075    1.035    1.075
 fft_wrap_pw1pw2_30                 488 12.0    0.014    0.015    1.009    1.050
 parser_read_line                269988  4.0    0.091    0.100    1.004    1.026
 Vh_1c_gg_integrals                 243  9.5    0.024    0.181    0.445    1.016
 pw_axpy                           2618 10.9    0.910    1.015    0.910    1.015
 calculate_rho_atom                 976  9.7    0.610    1.004    0.610    1.004
 make_m2s                          3098 11.3    0.060    0.064    0.889    0.946
 parser_read_line_low               296  5.0    0.087    0.395    0.913    0.935
 hybrid_alltoall_any               4310 13.5    0.040    0.050    0.897    0.930
 pw_copy_from_array                2497 12.8    0.748    0.927    0.748    0.927
 mp_sum_dv                        21211  8.9    0.849    0.912    0.849    0.912
 mp_max_i                           714  5.0    0.347    0.907    0.347    0.907
 pw_zero                           2724 10.6    0.780    0.898    0.780    0.898
 broadcast_input_information        296  6.0    0.206    0.228    0.826    0.878
 mp_alltoall_i22                   4938 11.5    0.705    0.843    0.705    0.843
 make_images                       3098 12.3    0.174    0.178    0.731    0.769
 integrate_four_center_getP         423 10.9    0.144    0.154    0.733    0.742
 yz_to_xz                           486 14.0    0.044    0.049    0.680    0.716
 integrate_four_center_dist_KS      423 10.9    0.143    0.156    0.709    0.713
 offload_free_buffer                251 10.3    0.580    0.669    0.580    0.669
 pw_poisson_rebuild                 243 10.5    0.000    0.001    0.604    0.627
 ps_wavelet_create                    1 10.0    0.000    0.000    0.603    0.626
 RS_z_slice_distribution              1 11.0    0.498    0.585    0.603    0.626
 cp_fm_geeig                         20  7.0    0.001    0.001    0.593    0.594
 fft_wrap_pw1pw2_10                 488 12.0    0.005    0.005    0.538    0.544
 qs_energies_init_hamiltonians        1  3.0    0.000    0.000    0.544    0.544
 build_core_hamiltonian_matrix        1  4.0    0.000    0.000    0.532    0.532
 overlap_condnum                      1  5.0    0.000    0.001    0.529    0.530
 mp_bcast_am_src                    296  7.0    0.358    0.434    0.386    0.477
 calculate_rho_atom_coeff           245  8.9    0.041    0.081    0.449    0.450
 calculate_dm_sparse                 63  6.0    0.000    0.001    0.437    0.446
 xz_to_yz                           490 13.9    0.029    0.034    0.428    0.433
 mp_rank_compare                   4937 14.1    0.404    0.431    0.404    0.431
 arnoldi_conjugate_gradient           5  6.0    0.010    0.013    0.427    0.427
 cp_fm_trace_a1b1t1_aa            16500  8.0    0.077    0.082    0.420    0.424
 mp_bcast_i_src                    1184  7.0    0.218    0.402    0.218    0.402
 mp_sum_l                          5925 10.6    0.315    0.350    0.315    0.350
 multiply_cannon_metrocomm4       52666 13.3    0.155    0.170    0.299    0.338
 multiply_cannon_metrocomm3       55764 13.3    0.090    0.095    0.247    0.322
 make_images_sizes                 3098 13.3    0.004    0.004    0.302    0.320
 init_scf_run                         1  3.0    0.000    0.000    0.317    0.318
 mp_alltoall_i44                   3098 14.3    0.298    0.316    0.298    0.316
 xc_2nd_deriv_of_r                  720 10.0    0.002    0.054    0.013    0.316
 multiply_cannon_metrocomm2       51117 13.3    0.151    0.167    0.270    0.303
 prepare_dr1dr                      900 11.1    0.270    0.302    0.270    0.302
 dbcsr_finalize                    9602 11.4    0.042    0.068    0.192    0.293
 scf_env_initial_rho_setup            1  4.0    0.000    0.000    0.285    0.286
 mp_cart_sub                       2426 11.3    0.274    0.275    0.274    0.275
 scale_and_distribute               486 11.5    0.246    0.269    0.246    0.269
 dbcsr_sym_matrix_vector_mult      1384  7.0    0.022    0.025    0.233    0.261
 update_ks_atom                     243  8.7    0.034    0.051    0.222    0.254
 mp_bcast_dm                       8748  9.7    0.188    0.227    0.188    0.227
 tddfpt_construct_ground_state_       1  6.0    0.000    0.000    0.209    0.210
 cp_fm_redistribute_start           114  8.2    0.147    0.150    0.190    0.209
 rs_scatter_matrices                245  9.9    0.003    0.006    0.201    0.207
 multiply_cannon_metrocomm1       55764 13.3    0.064    0.068    0.155    0.205
 multiply_cannon_multrec          55764 13.3    0.080    0.193    0.087    0.199
 integrate_four_center_load         423 10.9    0.001    0.002    0.165    0.197
 mp_cart_create                    2188 10.6    0.177    0.194    0.179    0.197
 hfx_load_balance                     1 11.0    0.000    0.000    0.164    0.196
 dbcsr_create_new                 37512 11.7    0.132    0.141    0.172    0.182
 mp_allgather_i34                  1549 12.3    0.147    0.180    0.147    0.180
 qs_init_subsys                       1  2.0    0.003    0.004    0.176    0.177
 hfx_load_balance_range               1 12.0    0.000    0.000    0.140    0.171
 dbcsr_merge_all                   7715 12.4    0.083    0.133    0.108    0.171
 qs_env_setup                         1  3.0    0.000    0.000    0.167    0.168
 qs_env_rebuild_pw_env                2  3.5    0.000    0.000    0.166    0.167
 pw_env_rebuild                       1  5.0    0.001    0.001    0.166    0.167
 make_images_data                  3098 13.3    0.040    0.053    0.098    0.162
 mp_irecv_dv                     162721 13.8    0.114    0.158    0.114    0.158
 tddfpt_compute_ritz_vects            9  7.0    0.007    0.007    0.153    0.153
 pw_grid_setup                        4  6.0    0.000    0.000    0.144    0.144
 pw_grid_setup_internal               4  7.0    0.003    0.004    0.144    0.144
 dbcsr_add_d                       2124  7.1    0.002    0.003    0.021    0.141
 dbcsr_add_anytype                 2124  8.1    0.003    0.018    0.018    0.138
 rs_grid_create                     249 10.4    0.001    0.002    0.015    0.121
 offload_create_buffer              251 11.3    0.014    0.119    0.014    0.119
 dbcsr_special_finalize            7745 13.3    0.030    0.032    0.087    0.111
 dbcsr_col_vec_to_rep_row          1384  8.0    0.010    0.011    0.084    0.111
 pw_scale                           612  9.5    0.094    0.110    0.094    0.110
 cube_transpose_2                   490 13.9    0.009    0.010    0.098    0.109
 create_kernel_env                    1  6.0    0.000    0.000    0.094    0.104
 xc_prep_2nd_deriv                    1  7.0    0.000    0.000    0.094    0.104
 cube_transpose_1                   486 14.0    0.008    0.010    0.087    0.098
 dbcsr_rep_row_to_rep_col_vec      1384  8.0    0.007    0.009    0.041    0.098
 mp_isend_iv                     112934 14.3    0.083    0.094    0.083    0.094
 calculate_rho0_atom                976  9.7    0.093    0.094    0.093    0.094
 dbcsr_iterator_start             43311 11.0    0.053    0.071    0.065    0.091
 tddfpt_orthogonalize_psi1_psi0      10  6.9    0.000    0.000    0.076    0.087
 copy_fm_to_dbcsr_bc               2513 10.6    0.027    0.029    0.078    0.086
 mp_bcast_dv                       1498  9.0    0.039    0.084    0.039    0.084
 dbcsr_copy                        9400  8.9    0.030    0.035    0.064    0.075
 cp_fm_symm                          63  7.0    0.061    0.074    0.061    0.074
 vxc_of_r_new                       252  9.0    0.000    0.011    0.003    0.073
 dbcsr_make_images_dense            846 11.7    0.015    0.017    0.042    0.071
 dbcsr_merge_single_wm             7745 14.3    0.039    0.046    0.047    0.070
 pw_grid_sort                         4  8.0    0.043    0.045    0.067    0.070
 dbcsr_destroy                    34685 11.1    0.045    0.048    0.064    0.069
 dbcsr_work_create                16672 12.5    0.035    0.044    0.052    0.066
 mp_bcast_iv                        321  7.5    0.029    0.064    0.029    0.064
 mp_cart_rank                    210420 11.0    0.056    0.064    0.056    0.064
 mixing_init                          1  5.0    0.041    0.061    0.062    0.063
 dbcsr_data_new                  117268 12.7    0.054    0.061    0.054    0.061
 dbcsr_data_release              181912 12.6    0.051    0.061    0.051    0.061
 dbcsr_iterator_stop              43311 11.0    0.038    0.048    0.047    0.059
 scf_post_calculation_gpw             1  3.0    0.000    0.000    0.057    0.057
 write_available_results              1  4.0    0.000    0.000    0.057    0.057
 write_mo_free_results                1  5.0    0.003    0.003    0.057    0.057
 dbcsr_work_destroy_all           16672 13.4    0.031    0.040    0.042    0.056
 mp_irecv_iv                     114060 14.3    0.046    0.054    0.046    0.054
 cp_fm_write_unformatted             24  7.0    0.029    0.043    0.029    0.050
 tddfpt_is_nonorthogonal_psi1_p       8  7.0    0.000    0.001    0.049    0.050
 cp_fm_cholesky_decompose            20  8.0    0.049    0.049    0.049    0.049
 setup_buffer_matrices             3098 12.3    0.012    0.013    0.040    0.045
 mp_bcast_iv_src                    296  7.0    0.015    0.044    0.015    0.044
 dbcsr_make_dense_low              2115 12.7    0.010    0.011    0.017    0.043
 cp_fm_triangular_multiply           60  8.0    0.039    0.041    0.039    0.041
 mp_maxloc_dv                      1251  1.0    0.037    0.039    0.037    0.039
 cp_fm_power                          1  6.0    0.000    0.000    0.039    0.039
 cp_fm_triangular_invert             20  8.0    0.037    0.038    0.037    0.038
 mp_max_d                           225  8.4    0.026    0.036    0.026    0.036
 write_mo_set_to_restart             63  5.0    0.001    0.008    0.013    0.035
 write_mo_set_low                     4  6.0    0.000    0.000    0.012    0.032
 mp_sum_im                          119  9.0    0.023    0.030    0.023    0.030
 pw_pool_create_pw                 8484 10.8    0.019    0.021    0.025    0.030
 dbcsr_make_untransposed_blocks    2512 11.4    0.015    0.020    0.024    0.030
 tddfpt_dipole_operator               1  5.0    0.000    0.001    0.029    0.029
 mp_sum_iv                          700  7.5    0.022    0.029    0.022    0.029
 sort_shells                          4  9.0    0.024    0.028    0.024    0.028
 dbcsr_mm_multrec_init             1549 12.3    0.003    0.004    0.024    0.027
 dbcsr_make_index_exist           37512 12.7    0.023    0.027    0.023    0.027
 make_dense_data                   2115 13.7    0.001    0.011    0.002    0.027
 mp_comm_split                      114  9.2    0.025    0.026    0.025    0.026
 -------------------------------------------------------------------------------

 The number of warnings for this run is : 1
 
 -------------------------------------------------------------------------------
  **** **** ******  **  PROGRAM ENDED AT                 2025-04-02 20:44:03.570
 ***** ** ***  *** **   PROGRAM RAN ON                              i05r01c02s07
 **    ****   ******    PROGRAM RAN BY                                   di38fab
 ***** **    ** ** **   PROGRAM PROCESS ID                               3932293
  **** **  *******  **  PROGRAM STOPPED IN /hppfs/scratch/04/di38fab/07_MOL_non_
                                           aug/05_MOL_non_aug/05_MOL/aUKBqsEOTmq
                                           69kFe5R_nOg/5k_set_final_qzvp/OGEJUG/
                                           cc-pVDZ/TDDFT
