 DBCSR| CPU Multiplication driver                                           BLAS (U)
 DBCSR| Multrec recursion limit                                              512 (U)
 DBCSR| Multiplication stack size                                           1000 (D)
 DBCSR| Maximum elements for images                                    UNLIMITED (U)
 DBCSR| Multiplicative factor virtual images                                   1 (U)
 DBCSR| Use multiplication densification                                       T (D)
 DBCSR| Multiplication size stacks                                             3 (U)
 DBCSR| Use memory pool for CPU allocation                                     F (U)
 DBCSR| Number of 3D layers                                               SINGLE (U)
 DBCSR| Use MPI memory allocation                                              F (U)
 DBCSR| Use RMA algorithm                                                      F (U)
 DBCSR| Use Communication thread                                               T (U)
 DBCSR| Communication thread load                                             45 (D)
 DBCSR| MPI: My process id                                                     0
 DBCSR| MPI: Number of processes                                             128
 DBCSR| OMP: Current number of threads                                        12
 DBCSR| OMP: Max number of threads                                            12
 DBCSR| Split modifier for TAS multiplication algorithm                  1.0E+00 (U)


  **** **** ******  **  PROGRAM STARTED AT               2025-04-14 06:10:15.026
 ***** ** ***  *** **   PROGRAM STARTED ON                          i03r03c05s12
 **    ****   ******    PROGRAM STARTED BY                               di38fab
 ***** **    ** ** **   PROGRAM PROCESS ID                               1765340
  **** **  *******  **  PROGRAM STARTED IN /hppfs/scratch/04/di38fab/05_MOL/aUKB
                                           qsEOTmq69kFe5R_nOg/5k_set_final_qzvp/
                                           YEBHAQ/aug-cc-pVDZ/TDDFT

 CP2K| version string:                 CP2K version 2025.1 (Development Version)
 CP2K| source code revision number:                             unknown revision
 CP2K| cp2kflags: omp libint fftw3 libxc parallel scalapack max_contr=4         
 CP2K| is freely available from                            https://www.cp2k.org/
 CP2K| Program compiled at                         Thu Apr 10 16:20:23 CEST 2025
 CP2K| Program compiled on                                               login01
 CP2K| Program compiled for                                        Supermuc-foss
 CP2K| Data directory path                  /hppfs/work/pn36zo/di38fab/cp2k/data
 CP2K| Input file name                                                    GW.inp

 GLOBAL| Force Environment number                                              1
 GLOBAL| Basis set file name            /hppfs/scratch/04/di38fab/04_TMD/BASIS_A
 GLOBAL| Potential file name            /hppfs/work/pn36zo/di38fab/cp2k/data/ALL
 GLOBAL| MM Potential file name                                     MM_POTENTIAL
 GLOBAL| Coordinate file name                                      __STD_INPUT__
 GLOBAL| Method name                                                        CP2K
 GLOBAL| Project name                                                       MoS2
 GLOBAL| Run type                                                         ENERGY
 GLOBAL| FFT library                                                       FFTW3
 GLOBAL| Diagonalization library                                       ScaLAPACK
 GLOBAL| DGEMM library                                                      BLAS
 GLOBAL| Orthonormality check for eigenvectors                          DISABLED
 GLOBAL| Matrix multiplication library                                 ScaLAPACK
 GLOBAL| All-to-all communication in single precision                          F
 GLOBAL| FFTs using library dependent lengths                                  F
 GLOBAL| Grid backend                                                       AUTO
 GLOBAL| Global print level                                               MEDIUM
 GLOBAL| MPI I/O enabled                                                       T
 GLOBAL| Total number of message passing processes                           128
 GLOBAL| Number of threads for this process                                   12
 GLOBAL| This output is from process                                           0
 GLOBAL| OpenMP stack size per thread (OMP_STACKSIZE)                    default
 GLOBAL| CPU model name             Intel(R) Xeon(R) Platinum 8174 CPU @ 3.10GHz

 MEMORY| system memory details [Kb]
 MEMORY|                        rank 0           min           max       average
 MEMORY| MemTotal             98436660      98436660      98436944      98436674
 MEMORY| MemFree              86141080      85359328      87070876      86017100
 MEMORY| Buffers                     0             0             0             0
 MEMORY| Cached                2338192       2221688       2354268       2337928
 MEMORY| Slab                  1035848        870848       1072916       1044123
 MEMORY| SReclaimable           242700        182440        257516        243939
 MEMORY| MemLikelyFree        88721972      87935120      89475004      88598968


 *** Fundamental physical constants (SI units) ***

 *** Literature: B. J. Mohr and B. N. Taylor,
 ***             CODATA recommended values of the fundamental physical
 ***             constants: 2006, Web Version 5.1
 ***             http://physics.nist.gov/constants

 Speed of light in vacuum [m/s]                             2.99792458000000E+08
 Magnetic constant or permeability of vacuum [N/A**2]       1.25663706143592E-06
 Electric constant or permittivity of vacuum [F/m]          8.85418781762039E-12
 Planck constant (h) [J*s]                                  6.62606896000000E-34
 Planck constant (h-bar) [J*s]                              1.05457162825177E-34
 Elementary charge [C]                                      1.60217648700000E-19
 Electron mass [kg]                                         9.10938215000000E-31
 Electron g factor [ ]                                     -2.00231930436220E+00
 Proton mass [kg]                                           1.67262163700000E-27
 Fine-structure constant                                    7.29735253760000E-03
 Rydberg constant [1/m]                                     1.09737315685270E+07
 Avogadro constant [1/mol]                                  6.02214179000000E+23
 Boltzmann constant [J/K]                                   1.38065040000000E-23
 Atomic mass unit [kg]                                      1.66053878200000E-27
 Bohr radius [m]                                            5.29177208590000E-11

 *** Conversion factors ***

 [u] -> [a.u.]                                              1.82288848426455E+03
 [Angstrom] -> [Bohr] = [a.u.]                              1.88972613288564E+00
 [a.u.] = [Bohr] -> [Angstrom]                              5.29177208590000E-01
 [a.u.] -> [s]                                              2.41888432650478E-17
 [a.u.] -> [fs]                                             2.41888432650478E-02
 [a.u.] -> [J]                                              4.35974393937059E-18
 [a.u.] -> [N]                                              8.23872205491840E-08
 [a.u.] -> [K]                                              3.15774647902944E+05
 [a.u.] -> [kJ/mol]                                         2.62549961709828E+03
 [a.u.] -> [kcal/mol]                                       6.27509468713739E+02
 [a.u.] -> [Pa]                                             2.94210107994716E+13
 [a.u.] -> [bar]                                            2.94210107994716E+08
 [a.u.] -> [atm]                                            2.90362800883016E+08
 [a.u.] -> [eV]                                             2.72113838565563E+01
 [a.u.] -> [Hz]                                             6.57968392072181E+15
 [a.u.] -> [1/cm] (wave numbers)                            2.19474631370540E+05
 [a.u./Bohr**2] -> [1/cm]                                   5.14048714338585E+03
 

 CELL_TOP| Volume [angstrom^3]:                                     27000.000000
 CELL_TOP| Vector a [angstrom    30.000     0.000     0.000   |a| =    30.000000
 CELL_TOP| Vector b [angstrom     0.000    30.000     0.000   |b| =    30.000000
 CELL_TOP| Vector c [angstrom     0.000     0.000    30.000   |c| =    30.000000
 CELL_TOP| Angle (b,c), alpha [degree]:                                90.000000
 CELL_TOP| Angle (a,c), beta  [degree]:                                90.000000
 CELL_TOP| Angle (a,b), gamma [degree]:                                90.000000
 CELL_TOP| Numerically orthorhombic:                                         YES
 CELL_TOP| Periodicity                                                      NONE

 GENERATE|  Preliminary Number of Bonds generated:                             0
 GENERATE|  Achieved consistency in connectivity generation.

 CELL| Volume [angstrom^3]:                                         27000.000000
 CELL| Vector a [angstrom]:      30.000     0.000     0.000   |a| =    30.000000
 CELL| Vector b [angstrom]:       0.000    30.000     0.000   |b| =    30.000000
 CELL| Vector c [angstrom]:       0.000     0.000    30.000   |c| =    30.000000
 CELL| Angle (b,c), alpha [degree]:                                    90.000000
 CELL| Angle (a,c), beta  [degree]:                                    90.000000
 CELL| Angle (a,b), gamma [degree]:                                    90.000000
 CELL| Numerically orthorhombic:                                             YES
 CELL| Periodicity                                                          NONE

 CELL_REF| Volume [angstrom^3]:                                     27000.000000
 CELL_REF| Vector a [angstrom    30.000     0.000     0.000   |a| =    30.000000
 CELL_REF| Vector b [angstrom     0.000    30.000     0.000   |b| =    30.000000
 CELL_REF| Vector c [angstrom     0.000     0.000    30.000   |c| =    30.000000
 CELL_REF| Angle (b,c), alpha [degree]:                                90.000000
 CELL_REF| Angle (a,c), beta  [degree]:                                90.000000
 CELL_REF| Angle (a,b), gamma [degree]:                                90.000000
 CELL_REF| Numerically orthorhombic:                                         YES
 CELL_REF| Periodicity                                                      NONE

 *******************************************************************************
 *******************************************************************************
 **                                                                           **
 **     #####                         ##              ##                      **
 **    ##   ##            ##          ##              ##                      **
 **   ##     ##                       ##            ######                    **
 **   ##     ##  ##   ##  ##   #####  ##  ##   ####   ##    #####    #####    **
 **   ##     ##  ##   ##  ##  ##      ## ##   ##      ##   ##   ##  ##   ##   **
 **   ##  ## ##  ##   ##  ##  ##      ####     ###    ##   ######   ######    **
 **    ##  ###   ##   ##  ##  ##      ## ##      ##   ##   ##       ##        **
 **     #######   #####   ##   #####  ##  ##  ####    ##    #####   ##        **
 **           ##                                                    ##        **
 **                                                                           **
 **                                                ... make the atoms dance   **
 **                                                                           **
 **            Copyright (C) by CP2K developers group (2000-2025)             **
 **                      J. Chem. Phys. 152, 194103 (2020)                    **
 **                                                                           **
 *******************************************************************************

 DFT| Spin restricted Kohn-Sham (RKS) calculation                            RKS
 DFT| Multiplicity                                                             1
 DFT| Number of spin states                                                    1
 DFT| Charge                                                                   0
 DFT| Self-interaction correction (SIC)                                       NO
 DFT| Cutoffs: density                                              1.000000E-10
 DFT|          gradient                                             1.000000E-10
 DFT|          tau                                                  1.000000E-10
 DFT|          cutoff_smoothing_range                               0.000000E+00
 DFT| XC density smoothing                                                  NONE
 DFT| XC derivatives                                                          PW

 FUNCTIONAL| PBE:
 FUNCTIONAL| J.P.Perdew, K.Burke, M.Ernzerhof, Phys. Rev. Letter, vol. 77, n 18,
 FUNCTIONAL|  pp. 3865-3868, (1996)sx=0.750sc=1.000{spin unpolarized}           


 QS| Method:                                                                GAPW
 QS| Density plane wave grid type                        NON-SPHERICAL FULLSPACE
 QS| Number of grid levels:                                                    4
 QS| Density cutoff [a.u.]:                                                250.0
 QS| Multi grid cutoff [a.u.]: 1) grid level                               250.0
 QS|                           2) grid level                                83.3
 QS|                           3) grid level                                27.8
 QS|                           4) grid level                                 9.3
 QS| Grid level progression factor:                                          3.0
 QS| Relative density cutoff [a.u.]:                                        50.0
 QS| Interaction thresholds: eps_pgf_orb:                                1.0E-12
 QS|                         eps_filter_matrix:                          0.0E+00
 QS|                         eps_core_charge:                            1.0E-14
 QS|                         eps_rho_gspace:                             1.0E-12
 QS|                         eps_rho_rspace:                             1.0E-12
 QS|                         eps_gvg_rspace:                             1.0E-06
 QS|                         eps_ppl:                                    1.0E-02
 QS|                         eps_ppnl:                                   1.0E-08
 QS| GAPW|      One center basis from orbital basis primitives
 QS| GAPW|                   eps_fit:                                    1.0E-04
 QS| GAPW|                   eps_iso:                                    1.0E-12
 QS| GAPW|                   eps_svd:                                    1.0E-08
 QS| GAPW|                   eps_cpc:                                    1.0E-12
 QS| GAPW|   atom-r-grid: quadrature:                                     GC_LOG
 QS| GAPW|      atom-s-grid:  max l :                                          4
 QS| GAPW|      max_l_rho0 :                                                   2


 ATOMIC KIND INFORMATION

  1. Atomic kind: C                                     Number of atoms:       4

     Orbital Basis Set                                               aug-cc-pVDZ

       Number of orbital shell sets:                                           6
       Number of orbital shells:                                               9
       Number of primitive Cartesian functions:                               17
       Number of Cartesian basis functions:                                   25
       Number of spherical basis functions:                                   23
       Norm type:                                                              2

       Normalised Cartesian orbitals:

                        Set   Shell   Orbital            Exponent    Coefficient

                          1       1    1px               0.040410       0.025826
                          1       1    1py               0.040410       0.025826
                          1       1    1pz               0.040410       0.025826

                          2       1    1s                0.046900       0.071827

                          3       1    1dx2              0.151000       0.060203
                          3       1    1dxy              0.151000       0.104275
                          3       1    1dxz              0.151000       0.104275
                          3       1    1dy2              0.151000       0.060203
                          3       1    1dyz              0.151000       0.104275
                          3       1    1dz2              0.151000       0.060203

                          4       1    1px               9.439000       0.898722
                                                         2.002000       0.711071
                                                         0.545600       0.339917
                                                         0.151700       0.063270
                          4       1    1py               9.439000       0.898722
                                                         2.002000       0.711071
                                                         0.545600       0.339917
                                                         0.151700       0.063270
                          4       1    1pz               9.439000       0.898722
                                                         2.002000       0.711071
                                                         0.545600       0.339917
                                                         0.151700       0.063270

                          4       2    2px               9.439000       0.000000
                                                         2.002000       0.000000
                                                         0.545600       0.000000
                                                         0.151700       0.134950
                          4       2    2py               9.439000       0.000000
                                                         2.002000       0.000000
                                                         0.545600       0.000000
                                                         0.151700       0.134950
                          4       2    2pz               9.439000       0.000000
                                                         2.002000       0.000000
                                                         0.545600       0.000000
                                                         0.151700       0.134950

                          5       1    1s             6665.000000       0.363803
                                                      1000.000000       0.675392
                                                       228.000000       1.132301
                                                        64.710000       1.654004
                                                        21.060000       1.924978
                                                         7.495000       1.448149
                                                         2.797000       0.439427
                                                         0.521500       0.006650
                                                         0.159600      -0.000574

                          5       2    2s             6665.000000      -0.076756
                                                      1000.000000      -0.146257
                                                       228.000000      -0.239407
                                                        64.710000      -0.379069
                                                        21.060000      -0.448104
                                                         7.495000      -0.484201
                                                         2.797000      -0.196168
                                                         0.521500       0.238162
                                                         0.159600       0.104468

                          5       3    3s             6665.000000       0.000000
                                                      1000.000000       0.000000
                                                       228.000000       0.000000
                                                        64.710000       0.000000
                                                        21.060000       0.000000
                                                         7.495000       0.000000
                                                         2.797000       0.000000
                                                         0.521500       0.000000
                                                         0.159600       0.179964

                          6       1    1dx2              0.550000       0.578155
                          6       1    1dxy              0.550000       1.001394
                          6       1    1dxz              0.550000       1.001394
                          6       1    1dy2              0.550000       0.578155
                          6       1    1dyz              0.550000       1.001394
                          6       1    1dz2              0.550000       0.578155

     RI Auxiliary Basis Set                                    aug-cc-pVDZ-OPTRI

       Number of orbital shell sets:                                          17
       Number of orbital shells:                                              17
       Number of primitive Cartesian functions:                               17
       Number of Cartesian basis functions:                                   88
       Number of spherical basis functions:                                   69
       Norm type:                                                              2

       Normalised Cartesian orbitals:

                        Set   Shell   Orbital            Exponent    Coefficient

                          1       1    1s                0.073601       0.100710

                          2       1    1px               0.095295       0.075471
                          2       1    1py               0.095295       0.075471
                          2       1    1pz               0.095295       0.075471

                          3       1    1px               0.227892       0.224441
                          3       1    1py               0.227892       0.224441
                          3       1    1pz               0.227892       0.224441

                          4       1    1fx3              0.301896       0.099457
                          4       1    1fx2y             0.301896       0.222392
                          4       1    1fx2z             0.301896       0.222392
                          4       1    1fxy2             0.301896       0.222392
                          4       1    1fxyz             0.301896       0.385194
                          4       1    1fxz2             0.301896       0.222392
                          4       1    1fy3              0.301896       0.099457
                          4       1    1fy2z             0.301896       0.222392
                          4       1    1fyz2             0.301896       0.222392
                          4       1    1fz3              0.301896       0.099457

                          5       1    1dx2              0.333056       0.240334
                          5       1    1dxy              0.333056       0.416270
                          5       1    1dxz              0.333056       0.416270
                          5       1    1dy2              0.333056       0.240334
                          5       1    1dyz              0.333056       0.416270
                          5       1    1dz2              0.333056       0.240334

                          6       1    1px               0.481813       0.572187
                          6       1    1py               0.481813       0.572187
                          6       1    1pz               0.481813       0.572187

                          7       1    1s                0.499106       0.423209

                          8       1    1fx3              0.891821       1.137835
                          8       1    1fx2y             0.891821       2.544276
                          8       1    1fx2z             0.891821       2.544276
                          8       1    1fxy2             0.891821       2.544276
                          8       1    1fxyz             0.891821       4.406816
                          8       1    1fxz2             0.891821       2.544276
                          8       1    1fy3              0.891821       1.137835
                          8       1    1fy2z             0.891821       2.544276
                          8       1    1fyz2             0.891821       2.544276
                          8       1    1fz3              0.891821       1.137835

                          9       1    1gx4              0.973489       1.033584
                          9       1    1gx3y             0.973489       2.734606
                          9       1    1gx3z             0.973489       2.734606
                          9       1    1gx2y2            0.973489       3.530362
                          9       1    1gx2yz            0.973489       6.114766
                          9       1    1gx2z2            0.973489       3.530362
                          9       1    1gxy3             0.973489       2.734606
                          9       1    1gxy2z            0.973489       6.114766
                          9       1    1gxyz2            0.973489       6.114766
                          9       1    1gxz3             0.973489       2.734606
                          9       1    1gy4              0.973489       1.033584
                          9       1    1gy3z             0.973489       2.734606
                          9       1    1gy2z2            0.973489       3.530362
                          9       1    1gyz3             0.973489       2.734606
                          9       1    1gz4              0.973489       1.033584

                         10       1    1px               1.018656       1.458729
                         10       1    1py               1.018656       1.458729
                         10       1    1pz               1.018656       1.458729

                         11       1    1dx2              1.381969       2.899222
                         11       1    1dxy              1.381969       5.021600
                         11       1    1dxz              1.381969       5.021600
                         11       1    1dy2              1.381969       2.899222
                         11       1    1dyz              1.381969       5.021600
                         11       1    1dz2              1.381969       2.899222

                         12       1    1s                1.807741       1.111123

                         13       1    1px               2.153659       3.718872
                         13       1    1py               2.153659       3.718872
                         13       1    1pz               2.153659       3.718872

                         14       1    1fx3              2.652750      13.221209
                         14       1    1fx2y             2.652750      29.563522
                         14       1    1fx2z             2.652750      29.563522
                         14       1    1fxy2             2.652750      29.563522
                         14       1    1fxyz             2.652750      51.205523
                         14       1    1fxz2             2.652750      29.563522
                         14       1    1fy3              2.652750      13.221209
                         14       1    1fy2z             2.652750      29.563522
                         14       1    1fyz2             2.652750      29.563522
                         14       1    1fz3              2.652750      13.221209

                         15       1    1dx2              3.347320      13.634199
                         15       1    1dxy              3.347320      23.615125
                         15       1    1dxz              3.347320      23.615125
                         15       1    1dy2              3.347320      13.634199
                         15       1    1dyz              3.347320      23.615125
                         15       1    1dz2              3.347320      13.634199

                         16       1    1s                6.547563       2.917225

                         17       1    1dx2              8.107669      64.117632
                         17       1    1dxy              8.107669     111.054996
                         17       1    1dxz              8.107669     111.054996
                         17       1    1dy2              8.107669      64.117632
                         17       1    1dyz              8.107669     111.054996
                         17       1    1dz2              8.107669      64.117632

       Atomic covalent radius [Angstrom]:                                  0.770

       Atomic van der Waals radius [Angstrom]:                             1.700

     The atoms of this atomic kind are PAW atoms (GAPW):
       Hard Gaussian function radius:                                      1.512
       Rho0 radius:                                                        1.512
       Maximum GTO radius used for PAW projector construction:            24.566

     GAPW Soft Basis Set                                        aug-cc-pVDZ_soft

       Number of orbital shell sets:                                           6
       Number of orbital shells:                                               9
       Number of primitive Cartesian functions:                               10
       Number of Cartesian basis functions:                                   25
       Number of spherical basis functions:                                   23
       Norm type:                                                              2

       Normalised Cartesian orbitals:

                        Set   Shell   Orbital            Exponent    Coefficient

                          1       1    1px               0.040410       0.025826
                          1       1    1py               0.040410       0.025826
                          1       1    1pz               0.040410       0.025826

                          2       1    1s                0.046900       0.071827

                          3       1    1dx2              0.151000       0.060203
                          3       1    1dxy              0.151000       0.104275
                          3       1    1dxz              0.151000       0.104275
                          3       1    1dy2              0.151000       0.060203
                          3       1    1dyz              0.151000       0.104275
                          3       1    1dz2              0.151000       0.060203

                          4       1    1px               2.002000       0.711071
                                                         0.545600       0.339917
                                                         0.151700       0.063270
                          4       1    1py               2.002000       0.711071
                                                         0.545600       0.339917
                                                         0.151700       0.063270
                          4       1    1pz               2.002000       0.711071
                                                         0.545600       0.339917
                                                         0.151700       0.063270

                          4       2    2px               2.002000       0.000000
                                                         0.545600       0.000000
                                                         0.151700       0.134950
                          4       2    2py               2.002000       0.000000
                                                         0.545600       0.000000
                                                         0.151700       0.134950
                          4       2    2pz               2.002000       0.000000
                                                         0.545600       0.000000
                                                         0.151700       0.134950

                          5       1    1s                2.797000       0.439427
                                                         0.521500       0.006650
                                                         0.159600      -0.000574

                          5       2    2s                2.797000      -0.196168
                                                         0.521500       0.238162
                                                         0.159600       0.104468

                          5       3    3s                2.797000       0.000000
                                                         0.521500       0.000000
                                                         0.159600       0.179964

                          6       1    1dx2              0.550000       0.578155
                          6       1    1dxy              0.550000       1.001394
                          6       1    1dxz              0.550000       1.001394
                          6       1    1dy2              0.550000       0.578155
                          6       1    1dyz              0.550000       1.001394
                          6       1    1dz2              0.550000       0.578155

     AE Potential information for                                            ALL

       Description:                                       All-electron potential
                                          Krack, Parrinello, PCCP 2, 2105 (2000)

       Gaussian exponent of the core charge distribution:               4.109048
       Electronic configuration (s p d ...):                           4   2   0

  2. Atomic kind: H                                     Number of atoms:       9

     Orbital Basis Set                                               aug-cc-pVDZ

       Number of orbital shell sets:                                           4
       Number of orbital shells:                                               5
       Number of primitive Cartesian functions:                                7
       Number of Cartesian basis functions:                                    9
       Number of spherical basis functions:                                    9
       Norm type:                                                              2

       Normalised Cartesian orbitals:

                        Set   Shell   Orbital            Exponent    Coefficient

                          1       1    1s                0.029740       0.051041

                          2       1    1s               13.010000       0.096107
                                                         1.962000       0.163020
                                                         0.444600       0.185545
                                                         0.122000       0.073744

                          2       2    2s               13.010000       0.000000
                                                         1.962000       0.000000
                                                         0.444600       0.000000
                                                         0.122000       0.147123

                          3       1    1px               0.141000       0.123158
                          3       1    1py               0.141000       0.123158
                          3       1    1pz               0.141000       0.123158

                          4       1    1px               0.727000       0.956881
                          4       1    1py               0.727000       0.956881
                          4       1    1pz               0.727000       0.956881

     RI Auxiliary Basis Set                                    aug-cc-pVDZ-OPTRI

       Number of orbital shell sets:                                           8
       Number of orbital shells:                                               8
       Number of primitive Cartesian functions:                                8
       Number of Cartesian basis functions:                                   24
       Number of spherical basis functions:                                   22
       Norm type:                                                              2

       Normalised Cartesian orbitals:

                        Set   Shell   Orbital            Exponent    Coefficient

                          1       1    1s                0.081394       0.108606

                          2       1    1px               0.273202       0.281543
                          2       1    1py               0.273202       0.281543
                          2       1    1pz               0.273202       0.281543

                          3       1    1s                0.286540       0.279125

                          4       1    1dx2              0.757634       1.012660
                          4       1    1dxy              0.757634       1.753978
                          4       1    1dxz              0.757634       1.753978
                          4       1    1dy2              0.757634       1.012660
                          4       1    1dyz              0.757634       1.753978
                          4       1    1dz2              0.757634       1.012660

                          5       1    1px               1.251075       1.886011
                          5       1    1py               1.251075       1.886011
                          5       1    1pz               1.251075       1.886011

                          6       1    1s                1.320036       0.877707

                          7       1    1dx2              2.604730       8.790108
                          7       1    1dxy              2.604730      15.224913
                          7       1    1dxz              2.604730      15.224913
                          7       1    1dy2              2.604730       8.790108
                          7       1    1dyz              2.604730      15.224913
                          7       1    1dz2              2.604730       8.790108

                          8       1    1px               2.667161       4.858494
                          8       1    1py               2.667161       4.858494
                          8       1    1pz               2.667161       4.858494

       Atomic covalent radius [Angstrom]:                                  0.320

       Atomic van der Waals radius [Angstrom]:                             1.090

     The atoms of this atomic kind are PAW atoms (GAPW):
       Hard Gaussian function radius:                                      1.200
       Rho0 radius:                                                        1.200
       Maximum GTO radius used for PAW projector construction:            24.566

     GAPW Soft Basis Set                                        aug-cc-pVDZ_soft

       Number of orbital shell sets:                                           4
       Number of orbital shells:                                               5
       Number of primitive Cartesian functions:                                6
       Number of Cartesian basis functions:                                    9
       Number of spherical basis functions:                                    9
       Norm type:                                                              2

       Normalised Cartesian orbitals:

                        Set   Shell   Orbital            Exponent    Coefficient

                          1       1    1s                0.029740       0.051041

                          2       1    1s                1.962000       0.163020
                                                         0.444600       0.185545
                                                         0.122000       0.073744

                          2       2    2s                1.962000       0.000000
                                                         0.444600       0.000000
                                                         0.122000       0.147123

                          3       1    1px               0.141000       0.123158
                          3       1    1py               0.141000       0.123158
                          3       1    1pz               0.141000       0.123158

                          4       1    1px               0.727000       0.956881
                          4       1    1py               0.727000       0.956881
                          4       1    1pz               0.727000       0.956881

     AE Potential information for                                            ALL

       Description:                                       All-electron potential
                                          Krack, Parrinello, PCCP 2, 2105 (2000)

       Gaussian exponent of the core charge distribution:              12.500000
       Electronic configuration (s p d ...):                           1   0   0

  3. Atomic kind: N                                     Number of atoms:       1

     Orbital Basis Set                                               aug-cc-pVDZ

       Number of orbital shell sets:                                           6
       Number of orbital shells:                                               9
       Number of primitive Cartesian functions:                               17
       Number of Cartesian basis functions:                                   25
       Number of spherical basis functions:                                   23
       Norm type:                                                              2

       Normalised Cartesian orbitals:

                        Set   Shell   Orbital            Exponent    Coefficient

                          1       1    1px               0.056110       0.038926
                          1       1    1py               0.056110       0.038926
                          1       1    1pz               0.056110       0.038926

                          2       1    1s                0.061240       0.087738

                          3       1    1px              13.550000       1.479258
                                                         2.917000       1.180072
                                                         0.797300       0.548036
                                                         0.218500       0.098423
                          3       1    1py              13.550000       1.479258
                                                         2.917000       1.180072
                                                         0.797300       0.548036
                                                         0.218500       0.098423
                          3       1    1pz              13.550000       1.479258
                                                         2.917000       1.180072
                                                         0.797300       0.548036
                                                         0.218500       0.098423

                          3       2    2px              13.550000       0.000000
                                                         2.917000       0.000000
                                                         0.797300       0.000000
                                                         0.218500       0.212939
                          3       2    2py              13.550000       0.000000
                                                         2.917000       0.000000
                                                         0.797300       0.000000
                                                         0.218500       0.212939
                          3       2    2pz              13.550000       0.000000
                                                         2.917000       0.000000
                                                         0.797300       0.000000
                                                         0.218500       0.212939

                          4       1    1s             9046.000000       0.462754
                                                      1357.000000       0.858723
                                                       309.300000       1.440591
                                                        87.730000       2.108533
                                                        28.560000       2.454153
                                                        10.210000       1.825915
                                                         3.838000       0.543758
                                                         0.746600       0.008838
                                                         0.224800      -0.000666

                          4       2    2s             9046.000000      -0.101145
                                                      1357.000000      -0.192492
                                                       309.300000      -0.314968
                                                        87.730000      -0.501437
                                                        28.560000      -0.593976
                                                        10.210000      -0.643503
                                                         3.838000      -0.238093
                                                         0.746600       0.314268
                                                         0.224800       0.134678

                          4       3    3s             9046.000000       0.000000
                                                      1357.000000       0.000000
                                                       309.300000       0.000000
                                                        87.730000       0.000000
                                                        28.560000       0.000000
                                                        10.210000       0.000000
                                                         3.838000       0.000000
                                                         0.746600       0.000000
                                                         0.224800       0.232679

                          5       1    1dx2              0.230000       0.125728
                          5       1    1dxy              0.230000       0.217768
                          5       1    1dxz              0.230000       0.217768
                          5       1    1dy2              0.230000       0.125728
                          5       1    1dyz              0.230000       0.217768
                          5       1    1dz2              0.230000       0.125728

                          6       1    1dx2              0.817000       1.155575
                          6       1    1dxy              0.817000       2.001514
                          6       1    1dxz              0.817000       2.001514
                          6       1    1dy2              0.817000       1.155575
                          6       1    1dyz              0.817000       2.001514
                          6       1    1dz2              0.817000       1.155575

     RI Auxiliary Basis Set                                    aug-cc-pVDZ-OPTRI

       Number of orbital shell sets:                                          17
       Number of orbital shells:                                              17
       Number of primitive Cartesian functions:                               17
       Number of Cartesian basis functions:                                   88
       Number of spherical basis functions:                                   69
       Norm type:                                                              2

       Normalised Cartesian orbitals:

                        Set   Shell   Orbital            Exponent    Coefficient

                          1       1    1s                0.091449       0.118521

                          2       1    1px               0.115183       0.095648
                          2       1    1py               0.115183       0.095648
                          2       1    1pz               0.115183       0.095648

                          3       1    1px               0.322548       0.346484
                          3       1    1py               0.322548       0.346484
                          3       1    1pz               0.322548       0.346484

                          4       1    1dx2              0.422464       0.364369
                          4       1    1dxy              0.422464       0.631106
                          4       1    1dxz              0.422464       0.631106
                          4       1    1dy2              0.422464       0.364369
                          4       1    1dyz              0.422464       0.631106
                          4       1    1dz2              0.422464       0.364369

                          5       1    1fx3              0.510986       0.324994
                          5       1    1fx2y             0.510986       0.726708
                          5       1    1fx2z             0.510986       0.726708
                          5       1    1fxy2             0.510986       0.726708
                          5       1    1fxyz             0.510986       1.258694
                          5       1    1fxz2             0.510986       0.726708
                          5       1    1fy3              0.510986       0.324994
                          5       1    1fy2z             0.510986       0.726708
                          5       1    1fyz2             0.510986       0.726708
                          5       1    1fz3              0.510986       0.324994

                          6       1    1px               0.679523       0.879418
                          6       1    1py               0.679523       0.879418
                          6       1    1pz               0.679523       0.879418

                          7       1    1s                0.726628       0.560911

                          8       1    1fx3              1.397681       3.126962
                          8       1    1fx2y             1.397681       6.992099
                          8       1    1fx2z             1.397681       6.992099
                          8       1    1fxy2             1.397681       6.992099
                          8       1    1fxyz             1.397681      12.110671
                          8       1    1fxz2             1.397681       6.992099
                          8       1    1fy3              1.397681       3.126962
                          8       1    1fy2z             1.397681       6.992099
                          8       1    1fyz2             1.397681       6.992099
                          8       1    1fz3              1.397681       3.126962

                          9       1    1px               1.431573       2.232066
                          9       1    1py               1.431573       2.232066
                          9       1    1pz               1.431573       2.232066

                         10       1    1gx4              1.484177       3.296257
                         10       1    1gx3y             1.484177       8.721077
                         10       1    1gx3z             1.484177       8.721077
                         10       1    1gx2y2            1.484177      11.258862
                         10       1    1gx2yz            1.484177      19.500921
                         10       1    1gx2z2            1.484177      11.258862
                         10       1    1gxy3             1.484177       8.721077
                         10       1    1gxy2z            1.484177      19.500921
                         10       1    1gxyz2            1.484177      19.500921
                         10       1    1gxz3             1.484177       8.721077
                         10       1    1gy4              1.484177       3.296257
                         10       1    1gy3z             1.484177       8.721077
                         10       1    1gy2z2            1.484177      11.258862
                         10       1    1gyz3             1.484177       8.721077
                         10       1    1gz4              1.484177       3.296257

                         11       1    1dx2              1.846235       4.812954
                         11       1    1dxy              1.846235       8.336280
                         11       1    1dxz              1.846235       8.336280
                         11       1    1dy2              1.846235       4.812954
                         11       1    1dyz              1.846235       8.336280
                         11       1    1dz2              1.846235       4.812954

                         12       1    1s                2.651372       1.480857

                         13       1    1px               3.015942       5.665247
                         13       1    1py               3.015942       5.665247
                         13       1    1pz               3.015942       5.665247

                         14       1    1dx2              3.588066      15.396259
                         14       1    1dxy              3.588066      26.667102
                         14       1    1dxz              3.588066      26.667102
                         14       1    1dy2              3.588066      15.396259
                         14       1    1dyz              3.588066      26.667102
                         14       1    1dz2              3.588066      15.396259

                         15       1    1fx3              4.092837      35.075951
                         15       1    1fx2y             4.092837      78.432212
                         15       1    1fx2z             4.092837      78.432212
                         15       1    1fxy2             4.092837      78.432212
                         15       1    1fxyz             4.092837     135.848576
                         15       1    1fxz2             4.092837      78.432212
                         15       1    1fy3              4.092837      35.075951
                         15       1    1fy2z             4.092837      78.432212
                         15       1    1fyz2             4.092837      78.432212
                         15       1    1fz3              4.092837      35.075951

                         16       1    1dx2              6.973227      49.251404
                         16       1    1dxy              6.973227      85.305933
                         16       1    1dxz              6.973227      85.305933
                         16       1    1dy2              6.973227      49.251404
                         16       1    1dyz              6.973227      85.305933
                         16       1    1dz2              6.973227      49.251404

                         17       1    1s                9.674522       3.909599

       Atomic covalent radius [Angstrom]:                                  0.750

       Atomic van der Waals radius [Angstrom]:                             1.550

     The atoms of this atomic kind are PAW atoms (GAPW):
       Hard Gaussian function radius:                                      1.512
       Rho0 radius:                                                        1.512
       Maximum GTO radius used for PAW projector construction:            24.566

     GAPW Soft Basis Set                                        aug-cc-pVDZ_soft

       Number of orbital shell sets:                                           6
       Number of orbital shells:                                               9
       Number of primitive Cartesian functions:                               10
       Number of Cartesian basis functions:                                   25
       Number of spherical basis functions:                                   23
       Norm type:                                                              2

       Normalised Cartesian orbitals:

                        Set   Shell   Orbital            Exponent    Coefficient

                          1       1    1px               0.056110       0.038926
                          1       1    1py               0.056110       0.038926
                          1       1    1pz               0.056110       0.038926

                          2       1    1s                0.061240       0.087738

                          3       1    1px               2.917000       1.180072
                                                         0.797300       0.548036
                                                         0.218500       0.098423
                          3       1    1py               2.917000       1.180072
                                                         0.797300       0.548036
                                                         0.218500       0.098423
                          3       1    1pz               2.917000       1.180072
                                                         0.797300       0.548036
                                                         0.218500       0.098423

                          3       2    2px               2.917000       0.000000
                                                         0.797300       0.000000
                                                         0.218500       0.212939
                          3       2    2py               2.917000       0.000000
                                                         0.797300       0.000000
                                                         0.218500       0.212939
                          3       2    2pz               2.917000       0.000000
                                                         0.797300       0.000000
                                                         0.218500       0.212939

                          4       1    1s                3.838000       0.543758
                                                         0.746600       0.008838
                                                         0.224800      -0.000666

                          4       2    2s                3.838000      -0.238093
                                                         0.746600       0.314268
                                                         0.224800       0.134678

                          4       3    3s                3.838000       0.000000
                                                         0.746600       0.000000
                                                         0.224800       0.232679

                          5       1    1dx2              0.230000       0.125728
                          5       1    1dxy              0.230000       0.217768
                          5       1    1dxz              0.230000       0.217768
                          5       1    1dy2              0.230000       0.125728
                          5       1    1dyz              0.230000       0.217768
                          5       1    1dz2              0.230000       0.125728

                          6       1    1dx2              0.817000       1.155575
                          6       1    1dxy              0.817000       2.001514
                          6       1    1dxz              0.817000       2.001514
                          6       1    1dy2              0.817000       1.155575
                          6       1    1dyz              0.817000       2.001514
                          6       1    1dz2              0.817000       1.155575

     AE Potential information for                                            ALL

       Description:                                       All-electron potential
                                          Krack, Parrinello, PCCP 2, 2105 (2000)

       Gaussian exponent of the core charge distribution:               5.979100
       Electronic configuration (s p d ...):                           4   3   0

  4. Atomic kind: S                                     Number of atoms:       1

     Orbital Basis Set                                               aug-cc-pVDZ

       Number of orbital shell sets:                                           6
       Number of orbital shells:                                              11
       Number of primitive Cartesian functions:                               24
       Number of Cartesian basis functions:                                   29
       Number of spherical basis functions:                                   27
       Norm type:                                                              2

       Normalised Cartesian orbitals:

                        Set   Shell   Orbital            Exponent    Coefficient

                          1       1    1px               0.039900       0.025419
                          1       1    1py               0.039900       0.025419
                          1       1    1pz               0.039900       0.025419

                          2       1    1s                0.050700       0.076149

                          3       1    1px             399.700000      11.400936
                                                        94.190000      14.292268
                                                        29.750000      14.286128
                                                        10.770000       9.842934
                                                         4.119000       3.839926
                                                         1.625000       0.539735
                                                         0.472600       0.005705
                                                         0.140700      -0.000007
                          3       1    1py             399.700000      11.400936
                                                        94.190000      14.292268
                                                        29.750000      14.286128
                                                        10.770000       9.842934
                                                         4.119000       3.839926
                                                         1.625000       0.539735
                                                         0.472600       0.005705
                                                         0.140700      -0.000007
                          3       1    1pz             399.700000      11.400936
                                                        94.190000      14.292268
                                                        29.750000      14.286128
                                                        10.770000       9.842934
                                                         4.119000       3.839926
                                                         1.625000       0.539735
                                                         0.472600       0.005705
                                                         0.140700      -0.000007

                          3       2    2px             399.700000      -2.961452
                                                        94.190000      -3.620726
                                                        29.750000      -3.871231
                                                        10.770000      -2.599246
                                                         4.119000      -1.237867
                                                         1.625000       0.078954
                                                         0.472600       0.313663
                                                         0.140700       0.065687
                          3       2    2py             399.700000      -2.961452
                                                        94.190000      -3.620726
                                                        29.750000      -3.871231
                                                        10.770000      -2.599246
                                                         4.119000      -1.237867
                                                         1.625000       0.078954
                                                         0.472600       0.313663
                                                         0.140700       0.065687
                          3       2    2pz             399.700000      -2.961452
                                                        94.190000      -3.620726
                                                        29.750000      -3.871231
                                                        10.770000      -2.599246
                                                         4.119000      -1.237867
                                                         1.625000       0.078954
                                                         0.472600       0.313663
                                                         0.140700       0.065687

                          3       3    3px             399.700000       0.000000
                                                        94.190000       0.000000
                                                        29.750000       0.000000
                                                        10.770000       0.000000
                                                         4.119000       0.000000
                                                         1.625000       0.000000
                                                         0.472600       0.000000
                                                         0.140700       0.122831
                          3       3    3py             399.700000       0.000000
                                                        94.190000       0.000000
                                                        29.750000       0.000000
                                                        10.770000       0.000000
                                                         4.119000       0.000000
                                                         1.625000       0.000000
                                                         0.472600       0.000000
                                                         0.140700       0.122831
                          3       3    3pz             399.700000       0.000000
                                                        94.190000       0.000000
                                                        29.750000       0.000000
                                                        10.770000       0.000000
                                                         4.119000       0.000000
                                                         1.625000       0.000000
                                                         0.472600       0.000000
                                                         0.140700       0.122831

                          4       1    1dx2              0.152000       0.060903
                          4       1    1dxy              0.152000       0.105486
                          4       1    1dxz              0.152000       0.105486
                          4       1    1dy2              0.152000       0.060903
                          4       1    1dyz              0.152000       0.105486
                          4       1    1dz2              0.152000       0.060903

                          5       1    1s           110800.000000       1.071832
                                                     16610.000000       2.002384
                                                      3781.000000       3.423404
                                                      1071.000000       5.376879
                                                       349.800000       7.413604
                                                       126.300000       8.148781
                                                        49.260000       5.584810
                                                        20.160000       1.564869
                                                         5.720000       0.047178
                                                         2.182000      -0.003807
                                                         0.432700       0.000323
                                                         0.157000      -0.000065

                          5       2    2s           110800.000000      -0.297369
                                                     16610.000000      -0.550248
                                                      3781.000000      -0.961087
                                                      1071.000000      -1.503098
                                                       349.800000      -2.241502
                                                       126.300000      -2.671755
                                                        49.260000      -2.646951
                                                        20.160000      -0.836474
                                                         5.720000       1.352816
                                                         2.182000       0.776829
                                                         0.432700       0.015086
                                                         0.157000      -0.001683

                          5       3    3s           110800.000000       0.086166
                                                     16610.000000       0.160047
                                                      3781.000000       0.278185
                                                      1071.000000       0.438949
                                                       349.800000       0.651218
                                                       126.300000       0.795827
                                                        49.260000       0.794922
                                                        20.160000       0.280213
                                                         5.720000      -0.546916
                                                         2.182000      -0.502714
                                                         0.432700       0.240627
                                                         0.157000       0.098999

                          5       4    4s           110800.000000       0.000000
                                                     16610.000000       0.000000
                                                      3781.000000       0.000000
                                                      1071.000000       0.000000
                                                       349.800000       0.000000
                                                       126.300000       0.000000
                                                        49.260000       0.000000
                                                        20.160000       0.000000
                                                         5.720000       0.000000
                                                         2.182000       0.000000
                                                         0.432700       0.000000
                                                         0.157000       0.177760

                          6       1    1dx2              0.479000       0.453938
                          6       1    1dxy              0.479000       0.786244
                          6       1    1dxz              0.479000       0.786244
                          6       1    1dy2              0.479000       0.453938
                          6       1    1dyz              0.479000       0.786244
                          6       1    1dz2              0.479000       0.453938

     RI Auxiliary Basis Set                                    aug-cc-pVDZ-OPTRI

       Number of orbital shell sets:                                          18
       Number of orbital shells:                                              18
       Number of primitive Cartesian functions:                               18
       Number of Cartesian basis functions:                                   89
       Number of spherical basis functions:                                   70
       Norm type:                                                              2

       Normalised Cartesian orbitals:

                        Set   Shell   Orbital            Exponent    Coefficient

                          1       1    1px               0.073815       0.054843
                          1       1    1py               0.073815       0.054843
                          1       1    1pz               0.073815       0.054843

                          2       1    1s                0.087220       0.114386

                          3       1    1px               0.232976       0.230717
                          3       1    1py               0.232976       0.230717
                          3       1    1pz               0.232976       0.230717

                          4       1    1s                0.255123       0.255842

                          5       1    1dx2              0.300821       0.201117
                          5       1    1dxy              0.300821       0.348345
                          5       1    1dxz              0.300821       0.348345
                          5       1    1dy2              0.300821       0.201117
                          5       1    1dyz              0.300821       0.348345
                          5       1    1dz2              0.300821       0.201117

                          6       1    1fx3              0.318226       0.111972
                          6       1    1fx2y             0.318226       0.250377
                          6       1    1fx2z             0.318226       0.250377
                          6       1    1fxy2             0.318226       0.250377
                          6       1    1fxyz             0.318226       0.433666
                          6       1    1fxz2             0.318226       0.250377
                          6       1    1fy3              0.318226       0.111972
                          6       1    1fy2z             0.318226       0.250377
                          6       1    1fyz2             0.318226       0.250377
                          6       1    1fz3              0.318226       0.111972

                          7       1    1gx4              0.746960       0.498888
                          7       1    1gx3y             0.746960       1.319934
                          7       1    1gx3z             0.746960       1.319934
                          7       1    1gx2y2            0.746960       1.704027
                          7       1    1gx2yz            0.746960       2.951462
                          7       1    1gx2z2            0.746960       1.704027
                          7       1    1gxy3             0.746960       1.319934
                          7       1    1gxy2z            0.746960       2.951462
                          7       1    1gxyz2            0.746960       2.951462
                          7       1    1gxz3             0.746960       1.319934
                          7       1    1gy4              0.746960       0.498888
                          7       1    1gy3z             0.746960       1.319934
                          7       1    1gy2z2            0.746960       1.704027
                          7       1    1gyz3             0.746960       1.319934
                          7       1    1gz4              0.746960       0.498888

                          8       1    1px               0.790521       1.062507
                          8       1    1py               0.790521       1.062507
                          8       1    1pz               0.790521       1.062507

                          9       1    1s                0.820379       0.614357

                         10       1    1fx3              0.834298       0.979326
                         10       1    1fx2y             0.834298       2.189839
                         10       1    1fx2z             0.834298       2.189839
                         10       1    1fxy2             0.834298       2.189839
                         10       1    1fxyz             0.834298       3.792912
                         10       1    1fxz2             0.834298       2.189839
                         10       1    1fy3              0.834298       0.979326
                         10       1    1fy2z             0.834298       2.189839
                         10       1    1fyz2             0.834298       2.189839
                         10       1    1fz3              0.834298       0.979326

                         11       1    1dx2              0.928523       1.445595
                         11       1    1dxy              0.928523       2.503844
                         11       1    1dxz              0.928523       2.503844
                         11       1    1dy2              0.928523       1.445595
                         11       1    1dyz              0.928523       2.503844
                         11       1    1dz2              0.928523       1.445595

                         12       1    1s                2.638023       1.475262

                         13       1    1px               2.682351       4.893106
                         13       1    1py               2.682351       4.893106
                         13       1    1pz               2.682351       4.893106

                         14       1    1fx3              5.046678      56.197506
                         14       1    1fx2y             5.046678     125.661443
                         14       1    1fx2z             5.046678     125.661443
                         14       1    1fxy2             5.046678     125.661443
                         14       1    1fxyz             5.046678     217.652004
                         14       1    1fxz2             5.046678     125.661443
                         14       1    1fy3              5.046678      56.197506
                         14       1    1fy2z             5.046678     125.661443
                         14       1    1fyz2             5.046678     125.661443
                         14       1    1fz3              5.046678      56.197506

                         15       1    1dx2              7.174550      51.766657
                         15       1    1dxy              7.174550      89.662481
                         15       1    1dxz              7.174550      89.662481
                         15       1    1dy2              7.174550      51.766657
                         15       1    1dyz              7.174550      89.662481
                         15       1    1dz2              7.174550      51.766657

                         16       1    1s                8.482869       3.542560

                         17       1    1px               9.101604      22.533959
                         17       1    1py               9.101604      22.533959
                         17       1    1pz               9.101604      22.533959

[...]
 scf_env_do_scf_inner_loop           90  4.0    0.003    0.006  116.893  116.897
 pw_poisson_solve                   250  9.3    2.907    3.753  105.450  105.686
 qs_ks_update_qs_env                 90  5.0    0.001    0.001   87.010   87.015
 rebuild_ks_matrix                   90  6.0    0.000    0.000   87.001   87.007
 qs_ks_build_kohn_sham_matrix        90  7.0    0.014    0.016   87.001   87.007
 tddfpt_apply_coulomb               160  9.0    0.003    0.004   78.187   78.415
 ps_wavelet_solve                   250 10.3   41.158   50.108   74.441   75.630
 fft_wrap_pw1pw2                   5104 11.0    0.085    0.111   72.340   72.974
 fft_wrap_pw1pw2_250               3598 12.0    3.211    3.542   69.256   69.933
 fft3d_ps                          5104 13.0   17.677   20.540   63.050   63.838
 mp_alltoall_d54                    250 11.3   12.916   46.203   12.916   46.203
 qs_rho_update_rho_low              252  7.5    0.003    0.004   44.779   44.787
 calculate_rho_elec                 252  8.5    0.922    1.165   44.038   44.046
 mp_alltoall_z22v                  5104 15.0   42.623   44.045   42.623   44.045
 integrate_four_center              410  9.8    9.796   18.225   30.929   31.100
 integrate_v_rspace                 250  9.0    0.007    0.008   30.209   30.414
 density_rs2pw                      252  9.5    0.013    0.015   26.128   28.332
 x_to_yz                           2344 13.7    1.302    1.775   24.918   25.627
 xc_pw_derive                      1503 11.0    0.010    0.013   25.003   25.257
 potential_pw2rs                    250 10.0    0.079    0.087   23.705   23.925
 mp_alltoall_d45                    251 11.3   19.965   23.823   19.965   23.823
 transfer_rs2pw                    1260 10.6    0.024    0.042   19.844   21.941
 transfer_pw2rs                    1251 10.9    0.016    0.020   21.249   21.592
 yz_to_x                           2258 14.3    0.984    1.107   19.949   20.753
 tddfpt_apply_hfx                     8  8.0    0.004    0.004   19.412   19.412
 mp_sync                           2197 11.4    9.314   19.327    9.314   19.327
 tddfpt_apply_xc_analytic           160  9.0    0.060    0.070   18.899   19.061
 grid_collocate_task_list           252  9.5   16.373   18.743   16.373   18.743
 mp_alltoall_d11v                 14640 11.6   11.942   17.344   11.942   17.344
 xc_pw_divergence                   250 10.6    0.005    0.006   16.505   16.759
 tddft_hfx_matrix                   320  9.0    0.009    0.010   16.561   16.676
 mp_waitany                       58270 12.7   12.322   15.790   12.322   15.790
 hfx_ks_matrix                       90  8.0    0.004    0.004   14.392   14.452
 qs_vxc_create                       90  8.0    0.001    0.001   12.873   12.874
 xc_vxc_pw_create                    90  9.0    0.356    0.453   12.871   12.872
 prepare_gapw_den                   251  8.6    0.006    0.007   12.520   12.573
 xc_calc_2nd_deriv_analytical      1440 10.2    0.465    0.602   10.790   10.927
 transfer_rs2pw_250                 504 11.6    2.121    2.376    8.479   10.712
 sum_up_and_integrate                90  8.0    0.001    0.001   10.593   10.639
 gspace_mixing                       89  5.0    0.324    0.411   10.127   10.127
 gaVxcgb_GC                        1000  9.6    0.177    9.920    0.177    9.920
 transfer_pw2rs_250                 501 11.6    2.913    3.084    8.845    9.147
 put_rho0_on_grid                   251  9.6    0.960    1.252    8.992    9.045
 transfer_pw2rs_30                  250 12.0    4.912    5.922    8.743    8.953
 calculate_xc_2nd_deriv_atom        160  9.0    0.067    1.516    0.215    8.325
 broyden_mixing                      89  6.0    7.762    8.151    8.038    8.278
 transfer_rs2pw_30                  252 11.5    2.724    2.956    7.744    7.851
 integrate_vhg0_rspace              250  9.3    0.263    0.367    7.750    7.788
 mp_sum_d                          6397  7.5    6.851    7.364    6.851    7.364
 mp_waitall_1                    333016 13.3    5.140    7.151    5.140    7.151
 xc_rho_set_and_dset_create          91 10.0    0.248    0.291    6.000    6.534
 rs_gather_matrices                 250 10.0    0.027    0.037    5.708    6.510
 grid_integrate_task_list           250 10.0    0.788    6.361    0.788    6.361
 mp_sendrecv_dv                   64008 12.5    5.841    6.219    5.841    6.219
 powell_optimize                2200407 11.0    5.382    5.673    5.382    5.673
 cp_dbcsr_sm_fm_multiply           1006  8.6    0.022    0.025    5.528    5.639
 calc_screening_functions             1 10.0    1.481    1.499    4.474    4.602
 calculate_vxc_atom                  90  8.0    0.078    0.486    4.134    4.134
 dbcsr_complete_redistribute       3427 10.4    0.145    0.183    3.849    3.960
 mp_isend_dm3                     10046 12.7    1.410    3.691    1.410    3.691
 calc_pair_dist_radii                 1 10.0    0.971    0.991    3.359    3.635
 integrate_four_center_main         410 10.8    0.195    1.125    2.296    3.536
 mp_isendrecv_dv                 167640 12.2    1.414    3.415    1.414    3.415
 cp2k_distribution_to_z_slices      250 10.3    1.806    2.002    3.161    3.379
 pw_scatter_p                      2594 12.7    3.020    3.233    3.020    3.233
 qs_scf_new_mos                      90  5.0    0.001    0.001    3.210    3.221
 cp_fm_syevd                        140  7.2    0.001    0.001    3.195    3.205
 calculate_rho_atom                1255  9.6    1.739    3.151    1.739    3.151
 transfer_rs2pw_90                  252 11.5    0.387    0.416    2.309    3.144
 cp_fm_redistribute_end             140  8.2    1.556    3.009    1.570    3.018
 mp_sum_dm                        12183  9.8    2.761    3.012    2.761    3.012
 cp_fm_syevd_base                   140  8.2    1.437    2.882    1.437    2.882
 copy_fm_to_dbcsr                  2307  9.5    0.011    0.012    2.500    2.617
 copy_dbcsr_to_fm                  1118  9.2    0.016    0.017    2.559    2.603
 eigensolver_symm                    90  6.0    0.003    0.003    2.537    2.541
 transfer_pw2rs_90                  250 12.0    0.383    0.425    2.335    2.503
 integrate_four_center_bin        43622 11.8    2.101    2.483    2.101    2.483
 dbcsr_multiply_generic            1416 10.3    0.064    0.068    2.322    2.403
 fft_wrap_pw1pw2_90                 502 11.8    0.098    0.129    2.040    2.124
 mp_sum_dv                        21115  8.9    1.873    1.977    1.873    1.977
 create_qs_kind_set                   1  2.0    0.000    0.000    1.755    1.756
 read_qs_kind                         5  3.0    1.013    1.045    1.755    1.756
 xc_functional_eval                2091 10.8    0.001    0.006    1.047    1.706
 pbe_lda_eval                      2091 11.8    1.046    1.700    1.046    1.700
 pw_gather_p                       2510 13.2    1.577    1.693    1.577    1.693
 mp_alltoall_i11v                 11400 11.4    1.639    1.642    1.639    1.642
 cp_dbcsr_sm_fm_multiply_core      1006  9.6    0.003    0.003    1.567    1.642
 pw_integral_ab_c1d_c1d_gs          250 10.3    1.322    1.340    1.480    1.512
 pw_copy_to_array                  2510 13.2    0.775    1.462    0.775    1.462
 transfer_pw2rs_10                  250 12.0    0.488    0.537    1.309    1.455
 rs_grid_zero                      1253 11.8    1.154    1.347    1.154    1.347
 mp_isend_dv                      93536 13.4    0.797    1.341    0.797    1.341
 transfer_rs2pw_10                  252 11.5    0.466    0.487    1.288    1.339
 cp_dbcsr_plus_fm_fm_t              250  8.3    0.004    0.004    1.298    1.311
 pw_derive                         2253 11.8    1.175    1.265    1.175    1.265
 tddfpt_orthonormalize_psi1_psi       9  6.9    0.019    0.021    1.258    1.258
 qs_energies_init_hamiltonians        1  3.0    0.000    0.000    1.227    1.227
 build_core_hamiltonian_matrix        1  4.0    0.000    0.000    1.219    1.219
 overlap_condnum                      1  5.0    0.000    0.000    1.214    1.216
 tddfpt_print_nto_analysis            1  6.0    0.002    0.003    1.184    1.184
 multiply_cannon                   1416 11.3    0.135    0.141    1.082    1.165
 arnoldi_conjugate_gradient           5  6.0    0.017    0.020    1.142    1.143
 dbcsr_desymmetrize_deep           1119 10.2    0.023    0.027    1.034    1.088
 pw_copy                           3435 10.9    0.938    1.003    0.938    1.003
 mp_irecv_dm3                     10046 12.7    0.466    0.989    0.466    0.989
 tddfpt_apply_energy_diff             8  8.0    0.001    0.001    0.929    0.929
 multiply_cannon_loop              1416 12.3    0.207    0.235    0.797    0.872
 parallel_gemm_fm                  1533  8.2    0.002    0.002    0.846    0.862
 parallel_gemm_fm_gemm             1533  9.2    0.002    0.002    0.844    0.860
 cp_fm_gemm                        1533 10.2    0.842    0.858    0.842    0.858
 Vh_1c_gg_integrals                 250  9.3    0.042    0.631    0.777    0.841
 make_m2s                          2832 11.3    0.042    0.045    0.790    0.808
 tddfpt_compute_residual_vects        7  7.0    0.001    0.001    0.788    0.789
 cp_fm_geeig                         20  7.0    0.001    0.001    0.769    0.770
 integrate_four_center_dist_KS      410 10.8    0.101    0.110    0.759    0.762
 integrate_four_center_getP         410 10.8    0.102    0.109    0.742    0.758
 parser_read_line                216642  4.0    0.073    0.079    0.743    0.752
 calculate_rho_atom_coeff           252  8.5    0.070    0.096    0.738    0.739
 pw_poisson_set                     251 10.3    0.005    0.005    0.696    0.720
 dbcsr_finalize                   10333 11.3    0.055    0.163    0.350    0.694
 fft_wrap_pw1pw2_30                 502 11.8    0.020    0.021    0.578    0.687
 mp_alltoall_i22                   4546 11.4    0.528    0.684    0.528    0.684
 parser_read_line_low               241  5.0    0.072    0.312    0.670    0.682
 make_images                       2832 12.3    0.191    0.202    0.661    0.676
 pw_poisson_rebuild                 250 10.3    0.000    0.000    0.641    0.656
 ps_wavelet_create                    1 10.0    0.000    0.000    0.640    0.656
 RS_z_slice_distribution              1 11.0    0.581    0.630    0.640    0.656
 broadcast_input_information        241  6.0    0.166    0.173    0.598    0.633
 dbcsr_sym_matrix_vector_mult      2475  7.0    0.040    0.042    0.594    0.614
 pw_copy_from_array                2594 12.7    0.496    0.595    0.496    0.595
 mp_sum_l                          5500 10.5    0.493    0.594    0.493    0.594
 dbcsr_add_d                       3785  7.0    0.004    0.004    0.092    0.584
 dbcsr_add_anytype                 3785  8.0    0.007    0.050    0.089    0.580
 scale_and_distribute               500 11.3    0.462    0.520    0.462    0.520
 hybrid_alltoall_any               3951 13.4    0.036    0.040    0.510    0.520
 pw_axpy                           2668 10.7    0.457    0.497    0.457    0.497
 integrate_four_center_load         410 10.8    0.002    0.002    0.377    0.483
 hfx_load_balance                     1 11.0    0.000    0.000    0.375    0.481
 pw_zero                           2626 10.6    0.412    0.468    0.412    0.468
 calculate_dm_sparse                 90  6.0    0.001    0.001    0.428    0.436
 hfx_load_balance_range               1 12.0    0.000    0.000    0.330    0.436
 offload_free_buffer                258 10.1    0.392    0.432    0.392    0.432
 mp_max_i                           733  5.0    0.334    0.415    0.334    0.415
 fft_wrap_pw1pw2_10                 502 11.8    0.006    0.007    0.381    0.388
 xc_2nd_deriv_of_r                 1280 10.0    0.004    0.108    0.012    0.379
 mp_irecv_dv                      92212 13.4    0.117    0.373    0.117    0.373
 dbcsr_merge_all                   8899 12.3    0.156    0.276    0.197    0.371
 calculate_rho0_atom               1255  9.6    0.354    0.365    0.354    0.365
 cp_fm_trace_a1b1t1_aa            13090  8.0    0.087    0.096    0.353    0.355
 init_scf_run                         1  3.0    0.000    0.000    0.322    0.322
 mp_bcast_am_src                    241  7.0    0.228    0.281    0.244    0.298
 update_ks_atom                     250  8.6    0.050    0.067    0.263    0.297
 scf_env_initial_rho_setup            1  4.0    0.000    0.000    0.290    0.290
 dbcsr_col_vec_to_rep_row          2475  8.0    0.018    0.019    0.258    0.288
 mp_bcast_i_src                     964  7.0    0.175    0.282    0.175    0.282
 multiply_cannon_metrocomm3       22656 13.3    0.068    0.070    0.170    0.282
 dbcsr_iterator_start             52731 10.3    0.156    0.230    0.174    0.276
 make_images_sizes                 2832 13.3    0.003    0.004    0.229    0.260
 mp_alltoall_i44                   2832 14.3    0.225    0.257    0.225    0.257
 qs_init_subsys                       1  2.0    0.004    0.004    0.255    0.256
 mp_cart_sub                       2239 11.2    0.248    0.250    0.248    0.250
 mp_alltoall_z11v                   502 14.8    0.243    0.248    0.243    0.248
 qs_env_setup                         1  3.0    0.000    0.000    0.241    0.244
 qs_env_rebuild_pw_env                2  3.5    0.000    0.000    0.240    0.243
 pw_env_rebuild                       1  5.0    0.001    0.001    0.239    0.242
 mp_bcast_dm                       8000  9.6    0.213    0.241    0.213    0.241
 tddfpt_construct_ground_state_       1  6.0    0.000    0.000    0.234    0.234
 mp_bcast_dv                       2615  9.0    0.192    0.233    0.192    0.233
 cp_fm_redistribute_start           140  8.2    0.145    0.160    0.186    0.213
 dbcsr_create_new                 32878 10.9    0.141    0.156    0.176    0.193
 pw_grid_setup                        4  6.0    0.000    0.000    0.190    0.192
 pw_grid_setup_internal               4  7.0    0.005    0.007    0.190    0.192
 mp_cart_create                    2373 10.4    0.171    0.189    0.174    0.192
 dbcsr_work_create                14266 12.2    0.078    0.112    0.122    0.183
 mp_rank_compare                   5104 14.0    0.173    0.180    0.173    0.180
 multiply_cannon_metrocomm4       21240 13.3    0.065    0.071    0.141    0.173
 prepare_dr1dr                     1440 11.2    0.124    0.160    0.124    0.160
 multiply_cannon_multrec          22656 13.3    0.100    0.150    0.107    0.156
 dbcsr_work_destroy_all           14266 13.1    0.063    0.100    0.094    0.146
 yz_to_xz                           250 14.0    0.008    0.008    0.138    0.141
 rs_scatter_matrices                252  9.5    0.005    0.006    0.130    0.137
 dbcsr_iterator_stop              52731 10.3    0.086    0.124    0.098    0.137
 dbcsr_copy                       13440  8.4    0.069    0.075    0.112    0.123
 dbcsr_data_new                  178090 12.4    0.093    0.122    0.093    0.122
 xz_to_yz                           252 13.5    0.006    0.007    0.119    0.121
 make_images_data                  2832 13.3    0.034    0.041    0.096    0.121
 multiply_cannon_metrocomm2       19824 13.3    0.061    0.066    0.110    0.119
 copy_fm_to_dbcsr_bc               2307 10.5    0.034    0.038    0.107    0.117
 pw_grid_sort                         4  8.0    0.076    0.078    0.112    0.116
 multiply_cannon_metrocomm1       22656 13.3    0.035    0.037    0.063    0.115
 vxc_of_r_new                       720  9.0    0.001    0.032    0.003    0.108
 tddfpt_compute_ritz_vects            8  7.0    0.003    0.004    0.104    0.104
 create_kernel_env                    1  6.0    0.000    0.000    0.084    0.099
 xc_prep_2nd_deriv                    1  7.0    0.000    0.000    0.084    0.099
 tddfpt_orthogonalize_psi1_psi0       9  6.9    0.000    0.000    0.091    0.098
 dbcsr_data_release              247527 12.4    0.070    0.092    0.070    0.092
 mp_allgather_i34                  1416 12.3    0.072    0.089    0.072    0.089
 dbcsr_rep_row_to_rep_col_vec      2475  8.0    0.013    0.015    0.072    0.086
 cp_fm_cholesky_decompose            20  8.0    0.083    0.083    0.083    0.083
 cp_fm_triangular_invert             20  8.0    0.077    0.078    0.077    0.078
 dbcsr_special_finalize            4248 13.3    0.019    0.020    0.056    0.077
 cp_fm_triangular_multiply           60  8.0    0.068    0.070    0.068    0.070
 pw_scale                           680  9.5    0.050    0.069    0.050    0.069
 mixing_init                          1  5.0    0.061    0.066    0.066    0.066
 dbcsr_destroy                    27842 10.5    0.038    0.040    0.057    0.061
 cp_fm_symm                          90  7.0    0.056    0.061    0.056    0.061
 dbcsr_make_images_dense            820 11.6    0.011    0.012    0.030    0.056
 tree_to_linear_d                  3427 13.4    0.020    0.055    0.020    0.055
 rs_grid_create                     256 10.2    0.001    0.001    0.011    0.055
 offload_create_buffer              258 11.2    0.010    0.054    0.010    0.054
 dbcsr_scale_anytype               3787  9.0    0.009    0.014    0.045    0.054
 dbcsr_sym_matrix_vector_mult_l    2475  8.0    0.021    0.023    0.051    0.054
 dbcsr_make_untransposed_blocks    2306 11.3    0.019    0.021    0.047    0.052
 scf_post_calculation_gpw             1  3.0    0.000    0.000    0.050    0.051
 write_available_results              1  4.0    0.000    0.000    0.050    0.050
 write_mo_free_results                1  5.0    0.005    0.006    0.050    0.050
 dbcsr_add_wm_from_matrix           890 11.3    0.007    0.009    0.043    0.049
 tddfpt_is_nonorthogonal_psi1_p       7  7.0    0.000    0.000    0.047    0.047
 dbcsr_iterator_seek              52731 11.3    0.018    0.046    0.018    0.046
 mp_bcast_iv                        278  7.2    0.017    0.045    0.017    0.045
 create_fast_row_vec_access        4950  8.0    0.030    0.033    0.041    0.044
 create_fast_col_vec_access        4950  8.0    0.030    0.033    0.041    0.044
 hfx_create                           1  2.0    0.040    0.041    0.041    0.043
 compute_max_radius                   1  6.0    0.042    0.043    0.042    0.043
 mp_bcast_iv_src                    241  7.0    0.013    0.043    0.013    0.043
 dbcsr_merge_single_wm             2832 14.3    0.019    0.025    0.023    0.042
 mp_isend_iv                      47324 14.3    0.035    0.040    0.035    0.040
 sort_shells                          4  9.0    0.036    0.040    0.036    0.040
 mp_cart_rank                    128144 10.8    0.036    0.040    0.036    0.040
 cp_fm_power                          1  6.0    0.000    0.000    0.039    0.039
 cp_fm_write_unformatted             25  7.0    0.022    0.033    0.023    0.039
 dbcsr_make_dense_low              1230 12.6    0.007    0.008    0.013    0.038
 merge_index                       8899 13.3    0.013    0.035    0.013    0.035
 make_images_pack                  2832 13.3    0.006    0.006    0.032    0.035
 cube_transpose_2                   252 13.5    0.005    0.005    0.027    0.034
 dbcsr_crop_matrix                  270 10.0    0.000    0.001    0.029    0.032
 dbcsr_copy_submatrix               270 11.0    0.003    0.003    0.028    0.032
 -------------------------------------------------------------------------------

 The number of warnings for this run is : 1
 
 -------------------------------------------------------------------------------
  **** **** ******  **  PROGRAM ENDED AT                 2025-04-14 06:15:15.160
 ***** ** ***  *** **   PROGRAM RAN ON                              i03r03c05s12
 **    ****   ******    PROGRAM RAN BY                                   di38fab
 ***** **    ** ** **   PROGRAM PROCESS ID                               1765340
  **** **  *******  **  PROGRAM STOPPED IN /hppfs/scratch/04/di38fab/05_MOL/aUKB
                                           qsEOTmq69kFe5R_nOg/5k_set_final_qzvp/
                                           YEBHAQ/aug-cc-pVDZ/TDDFT
