 DBCSR| CPU Multiplication driver                                           BLAS (U)
 DBCSR| Multrec recursion limit                                              512 (U)
 DBCSR| Multiplication stack size                                           1000 (D)
 DBCSR| Maximum elements for images                                    UNLIMITED (U)
 DBCSR| Multiplicative factor virtual images                                   1 (U)
 DBCSR| Use multiplication densification                                       T (D)
 DBCSR| Multiplication size stacks                                             3 (U)
 DBCSR| Use memory pool for CPU allocation                                     F (U)
 DBCSR| Number of 3D layers                                               SINGLE (U)
 DBCSR| Use MPI memory allocation                                              F (U)
 DBCSR| Use RMA algorithm                                                      F (U)
 DBCSR| Use Communication thread                                               T (U)
 DBCSR| Communication thread load                                             45 (D)
 DBCSR| MPI: My process id                                                     0
 DBCSR| MPI: Number of processes                                             128
 DBCSR| OMP: Current number of threads                                        12
 DBCSR| OMP: Max number of threads                                            12
 DBCSR| Split modifier for TAS multiplication algorithm                  1.0E+00 (U)


  **** **** ******  **  PROGRAM STARTED AT               2025-04-14 08:56:33.701
 ***** ** ***  *** **   PROGRAM STARTED ON                          i03r01c04s06
 **    ****   ******    PROGRAM STARTED BY                               di38fab
 ***** **    ** ** **   PROGRAM PROCESS ID                               1815293
  **** **  *******  **  PROGRAM STARTED IN /hppfs/scratch/04/di38fab/05_MOL/aUKB
                                           qsEOTmq69kFe5R_nOg/5k_set_final_qzvp/
                                           WAFYIL/aug-cc-pVDZ/TDDFT

 CP2K| version string:                 CP2K version 2025.1 (Development Version)
 CP2K| source code revision number:                             unknown revision
 CP2K| cp2kflags: omp libint fftw3 libxc parallel scalapack max_contr=4         
 CP2K| is freely available from                            https://www.cp2k.org/
 CP2K| Program compiled at                         Thu Apr 10 16:20:23 CEST 2025
 CP2K| Program compiled on                                               login01
 CP2K| Program compiled for                                        Supermuc-foss
 CP2K| Data directory path                  /hppfs/work/pn36zo/di38fab/cp2k/data
 CP2K| Input file name                                                    GW.inp

 GLOBAL| Force Environment number                                              1
 GLOBAL| Basis set file name            /hppfs/scratch/04/di38fab/04_TMD/BASIS_A
 GLOBAL| Potential file name            /hppfs/work/pn36zo/di38fab/cp2k/data/ALL
 GLOBAL| MM Potential file name                                     MM_POTENTIAL
 GLOBAL| Coordinate file name                                      __STD_INPUT__
 GLOBAL| Method name                                                        CP2K
 GLOBAL| Project name                                                       MoS2
 GLOBAL| Run type                                                         ENERGY
 GLOBAL| FFT library                                                       FFTW3
 GLOBAL| Diagonalization library                                       ScaLAPACK
 GLOBAL| DGEMM library                                                      BLAS
 GLOBAL| Orthonormality check for eigenvectors                          DISABLED
 GLOBAL| Matrix multiplication library                                 ScaLAPACK
 GLOBAL| All-to-all communication in single precision                          F
 GLOBAL| FFTs using library dependent lengths                                  F
 GLOBAL| Grid backend                                                       AUTO
 GLOBAL| Global print level                                               MEDIUM
 GLOBAL| MPI I/O enabled                                                       T
 GLOBAL| Total number of message passing processes                           128
 GLOBAL| Number of threads for this process                                   12
 GLOBAL| This output is from process                                           0
 GLOBAL| OpenMP stack size per thread (OMP_STACKSIZE)                    default
 GLOBAL| CPU model name             Intel(R) Xeon(R) Platinum 8174 CPU @ 3.10GHz

 MEMORY| system memory details [Kb]
 MEMORY|                        rank 0           min           max       average
 MEMORY| MemTotal             98436660      98436572      98436864      98436665
 MEMORY| MemFree              85903164      85456352      87090012      86075267
 MEMORY| Buffers                     0             0             0             0
 MEMORY| Cached                2355444       2221204       2362512       2332182
 MEMORY| Slab                  1067260        876116       1094716       1057620
 MEMORY| SReclaimable           249964        185552        261524        247855
 MEMORY| MemLikelyFree        88508572      88073736      89496768      88655305


 *** Fundamental physical constants (SI units) ***

 *** Literature: B. J. Mohr and B. N. Taylor,
 ***             CODATA recommended values of the fundamental physical
 ***             constants: 2006, Web Version 5.1
 ***             http://physics.nist.gov/constants

 Speed of light in vacuum [m/s]                             2.99792458000000E+08
 Magnetic constant or permeability of vacuum [N/A**2]       1.25663706143592E-06
 Electric constant or permittivity of vacuum [F/m]          8.85418781762039E-12
 Planck constant (h) [J*s]                                  6.62606896000000E-34
 Planck constant (h-bar) [J*s]                              1.05457162825177E-34
 Elementary charge [C]                                      1.60217648700000E-19
 Electron mass [kg]                                         9.10938215000000E-31
 Electron g factor [ ]                                     -2.00231930436220E+00
 Proton mass [kg]                                           1.67262163700000E-27
 Fine-structure constant                                    7.29735253760000E-03
 Rydberg constant [1/m]                                     1.09737315685270E+07
 Avogadro constant [1/mol]                                  6.02214179000000E+23
 Boltzmann constant [J/K]                                   1.38065040000000E-23
 Atomic mass unit [kg]                                      1.66053878200000E-27
 Bohr radius [m]                                            5.29177208590000E-11

 *** Conversion factors ***

 [u] -> [a.u.]                                              1.82288848426455E+03
 [Angstrom] -> [Bohr] = [a.u.]                              1.88972613288564E+00
 [a.u.] = [Bohr] -> [Angstrom]                              5.29177208590000E-01
 [a.u.] -> [s]                                              2.41888432650478E-17
 [a.u.] -> [fs]                                             2.41888432650478E-02
 [a.u.] -> [J]                                              4.35974393937059E-18
 [a.u.] -> [N]                                              8.23872205491840E-08
 [a.u.] -> [K]                                              3.15774647902944E+05
 [a.u.] -> [kJ/mol]                                         2.62549961709828E+03
 [a.u.] -> [kcal/mol]                                       6.27509468713739E+02
 [a.u.] -> [Pa]                                             2.94210107994716E+13
 [a.u.] -> [bar]                                            2.94210107994716E+08
 [a.u.] -> [atm]                                            2.90362800883016E+08
 [a.u.] -> [eV]                                             2.72113838565563E+01
 [a.u.] -> [Hz]                                             6.57968392072181E+15
 [a.u.] -> [1/cm] (wave numbers)                            2.19474631370540E+05
 [a.u./Bohr**2] -> [1/cm]                                   5.14048714338585E+03
 

 CELL_TOP| Volume [angstrom^3]:                                     27000.000000
 CELL_TOP| Vector a [angstrom    30.000     0.000     0.000   |a| =    30.000000
 CELL_TOP| Vector b [angstrom     0.000    30.000     0.000   |b| =    30.000000
 CELL_TOP| Vector c [angstrom     0.000     0.000    30.000   |c| =    30.000000
 CELL_TOP| Angle (b,c), alpha [degree]:                                90.000000
 CELL_TOP| Angle (a,c), beta  [degree]:                                90.000000
 CELL_TOP| Angle (a,b), gamma [degree]:                                90.000000
 CELL_TOP| Numerically orthorhombic:                                         YES
 CELL_TOP| Periodicity                                                      NONE

 GENERATE|  Preliminary Number of Bonds generated:                             0
 GENERATE|  Achieved consistency in connectivity generation.

 CELL| Volume [angstrom^3]:                                         27000.000000
 CELL| Vector a [angstrom]:      30.000     0.000     0.000   |a| =    30.000000
 CELL| Vector b [angstrom]:       0.000    30.000     0.000   |b| =    30.000000
 CELL| Vector c [angstrom]:       0.000     0.000    30.000   |c| =    30.000000
 CELL| Angle (b,c), alpha [degree]:                                    90.000000
 CELL| Angle (a,c), beta  [degree]:                                    90.000000
 CELL| Angle (a,b), gamma [degree]:                                    90.000000
 CELL| Numerically orthorhombic:                                             YES
 CELL| Periodicity                                                          NONE

 CELL_REF| Volume [angstrom^3]:                                     27000.000000
 CELL_REF| Vector a [angstrom    30.000     0.000     0.000   |a| =    30.000000
 CELL_REF| Vector b [angstrom     0.000    30.000     0.000   |b| =    30.000000
 CELL_REF| Vector c [angstrom     0.000     0.000    30.000   |c| =    30.000000
 CELL_REF| Angle (b,c), alpha [degree]:                                90.000000
 CELL_REF| Angle (a,c), beta  [degree]:                                90.000000
 CELL_REF| Angle (a,b), gamma [degree]:                                90.000000
 CELL_REF| Numerically orthorhombic:                                         YES
 CELL_REF| Periodicity                                                      NONE

 *******************************************************************************
 *******************************************************************************
 **                                                                           **
 **     #####                         ##              ##                      **
 **    ##   ##            ##          ##              ##                      **
 **   ##     ##                       ##            ######                    **
 **   ##     ##  ##   ##  ##   #####  ##  ##   ####   ##    #####    #####    **
 **   ##     ##  ##   ##  ##  ##      ## ##   ##      ##   ##   ##  ##   ##   **
 **   ##  ## ##  ##   ##  ##  ##      ####     ###    ##   ######   ######    **
 **    ##  ###   ##   ##  ##  ##      ## ##      ##   ##   ##       ##        **
 **     #######   #####   ##   #####  ##  ##  ####    ##    #####   ##        **
 **           ##                                                    ##        **
 **                                                                           **
 **                                                ... make the atoms dance   **
 **                                                                           **
 **            Copyright (C) by CP2K developers group (2000-2025)             **
 **                      J. Chem. Phys. 152, 194103 (2020)                    **
 **                                                                           **
 *******************************************************************************

 DFT| Spin restricted Kohn-Sham (RKS) calculation                            RKS
 DFT| Multiplicity                                                             1
 DFT| Number of spin states                                                    1
 DFT| Charge                                                                   0
 DFT| Self-interaction correction (SIC)                                       NO
 DFT| Cutoffs: density                                              1.000000E-10
 DFT|          gradient                                             1.000000E-10
 DFT|          tau                                                  1.000000E-10
 DFT|          cutoff_smoothing_range                               0.000000E+00
 DFT| XC density smoothing                                                  NONE
 DFT| XC derivatives                                                          PW

 FUNCTIONAL| PBE:
 FUNCTIONAL| J.P.Perdew, K.Burke, M.Ernzerhof, Phys. Rev. Letter, vol. 77, n 18,
 FUNCTIONAL|  pp. 3865-3868, (1996)sx=0.750sc=1.000{spin unpolarized}           


 QS| Method:                                                                GAPW
 QS| Density plane wave grid type                        NON-SPHERICAL FULLSPACE
 QS| Number of grid levels:                                                    4
 QS| Density cutoff [a.u.]:                                                250.0
 QS| Multi grid cutoff [a.u.]: 1) grid level                               250.0
 QS|                           2) grid level                                83.3
 QS|                           3) grid level                                27.8
 QS|                           4) grid level                                 9.3
 QS| Grid level progression factor:                                          3.0
 QS| Relative density cutoff [a.u.]:                                        50.0
 QS| Interaction thresholds: eps_pgf_orb:                                1.0E-12
 QS|                         eps_filter_matrix:                          0.0E+00
 QS|                         eps_core_charge:                            1.0E-14
 QS|                         eps_rho_gspace:                             1.0E-12
 QS|                         eps_rho_rspace:                             1.0E-12
 QS|                         eps_gvg_rspace:                             1.0E-06
 QS|                         eps_ppl:                                    1.0E-02
 QS|                         eps_ppnl:                                   1.0E-08
 QS| GAPW|      One center basis from orbital basis primitives
 QS| GAPW|                   eps_fit:                                    1.0E-04
 QS| GAPW|                   eps_iso:                                    1.0E-12
 QS| GAPW|                   eps_svd:                                    1.0E-08
 QS| GAPW|                   eps_cpc:                                    1.0E-12
 QS| GAPW|   atom-r-grid: quadrature:                                     GC_LOG
 QS| GAPW|      atom-s-grid:  max l :                                          4
 QS| GAPW|      max_l_rho0 :                                                   2


 ATOMIC KIND INFORMATION

  1. Atomic kind: Cl                                    Number of atoms:       4

     Orbital Basis Set                                               aug-cc-pVDZ

       Number of orbital shell sets:                                           6
       Number of orbital shells:                                              11
       Number of primitive Cartesian functions:                               24
       Number of Cartesian basis functions:                                   29
       Number of spherical basis functions:                                   27
       Norm type:                                                              2

       Normalised Cartesian orbitals:

                        Set   Shell   Orbital            Exponent    Coefficient

                          1       1    1px               0.046600       0.030862
                          1       1    1py               0.046600       0.030862
                          1       1    1pz               0.046600       0.030862

                          2       1    1s                0.060800       0.087265

                          3       1    1px             417.600000      14.153418
                                                        98.330000      17.580960
                                                        31.040000      17.195583
                                                        11.190000      11.299250
                                                         4.249000       3.974503
                                                         1.624000       0.396255
                                                         0.532200       0.001177
                                                         0.162000       0.000276
                          3       1    1py             417.600000      14.153418
                                                        98.330000      17.580960
                                                        31.040000      17.195583
                                                        11.190000      11.299250
                                                         4.249000       3.974503
                                                         1.624000       0.396255
                                                         0.532200       0.001177
                                                         0.162000       0.000276
                          3       1    1pz             417.600000      14.153418
                                                        98.330000      17.580960
                                                        31.040000      17.195583
                                                        11.190000      11.299250
                                                         4.249000       3.974503
                                                         1.624000       0.396255
                                                         0.532200       0.001177
                                                         0.162000       0.000276

                          3       2    2px             417.600000      -3.863263
                                                        98.330000      -4.757734
                                                        31.040000      -4.909184
                                                        11.190000      -3.239052
                                                         4.249000      -1.332815
                                                         1.624000       0.233779
                                                         0.532200       0.375444
                                                         0.162000       0.070799
                          3       2    2py             417.600000      -3.863263
                                                        98.330000      -4.757734
                                                        31.040000      -4.909184
                                                        11.190000      -3.239052
                                                         4.249000      -1.332815
                                                         1.624000       0.233779
                                                         0.532200       0.375444
                                                         0.162000       0.070799
                          3       2    2pz             417.600000      -3.863263
                                                        98.330000      -4.757734
                                                        31.040000      -4.909184
                                                        11.190000      -3.239052
                                                         4.249000      -1.332815
                                                         1.624000       0.233779
                                                         0.532200       0.375444
                                                         0.162000       0.070799

                          3       3    3px             417.600000       0.000000
                                                        98.330000       0.000000
                                                        31.040000       0.000000
                                                        11.190000       0.000000
                                                         4.249000       0.000000
                                                         1.624000       0.000000
                                                         0.532200       0.000000
                                                         0.162000       0.146499
                          3       3    3py             417.600000       0.000000
                                                        98.330000       0.000000
                                                        31.040000       0.000000
                                                        11.190000       0.000000
                                                         4.249000       0.000000
                                                         1.624000       0.000000
                                                         0.532200       0.000000
                                                         0.162000       0.146499
                          3       3    3pz             417.600000       0.000000
                                                        98.330000       0.000000
                                                        31.040000       0.000000
                                                        11.190000       0.000000
                                                         4.249000       0.000000
                                                         1.624000       0.000000
                                                         0.532200       0.000000
                                                         0.162000       0.146499

                          4       1    1s           127900.000000       1.162400
                                                     19170.000000       2.172396
                                                      4363.000000       3.714419
                                                      1236.000000       5.840979
                                                       403.600000       8.081829
                                                       145.700000       8.946868
                                                        56.810000       6.221912
                                                        23.230000       1.788807
                                                         6.644000       0.056490
                                                         2.575000      -0.004850
                                                         0.537100       0.000416
                                                         0.193800      -0.000083

                          4       2    2s           127900.000000      -0.327252
                                                     19170.000000      -0.605913
                                                      4363.000000      -1.057948
                                                      1236.000000      -1.657076
                                                       403.600000      -2.476676
                                                       145.700000      -2.973453
                                                        56.810000      -2.970096
                                                        23.230000      -0.982730
                                                         6.644000       1.502545
                                                         2.575000       0.884786
                                                         0.537100       0.018849
                                                         0.193800      -0.001922

                          4       3    3s           127900.000000       0.098807
                                                     19170.000000       0.183803
                                                      4363.000000       0.318953
                                                      1236.000000       0.504952
                                                       403.600000       0.749180
                                                       145.700000       0.925416
                                                        56.810000       0.928426
                                                        23.230000       0.347094
                                                         6.644000      -0.646837
                                                         2.575000      -0.592210
                                                         0.537100       0.285489
                                                         0.193800       0.117069

                          4       4    4s           127900.000000       0.000000
                                                     19170.000000       0.000000
                                                      4363.000000       0.000000
                                                      1236.000000       0.000000
                                                       403.600000       0.000000
                                                       145.700000       0.000000
                                                        56.810000       0.000000
                                                        23.230000       0.000000
                                                         6.644000       0.000000
                                                         2.575000       0.000000
                                                         0.537100       0.000000
                                                         0.193800       0.208173

                          5       1    1dx2              0.196000       0.095029
                          5       1    1dxy              0.196000       0.164596
                          5       1    1dxz              0.196000       0.164596
                          5       1    1dy2              0.196000       0.095029
                          5       1    1dyz              0.196000       0.164596
                          5       1    1dz2              0.196000       0.095029

                          6       1    1dx2              0.600000       0.673247
                          6       1    1dxy              0.600000       1.166097
                          6       1    1dxz              0.600000       1.166097
                          6       1    1dy2              0.600000       0.673247
                          6       1    1dyz              0.600000       1.166097
                          6       1    1dz2              0.600000       0.673247

     RI Auxiliary Basis Set                                    aug-cc-pVDZ-OPTRI

       Number of orbital shell sets:                                          18
       Number of orbital shells:                                              18
       Number of primitive Cartesian functions:                               18
       Number of Cartesian basis functions:                                   89
       Number of spherical basis functions:                                   70
       Norm type:                                                              2

       Normalised Cartesian orbitals:

                        Set   Shell   Orbital            Exponent    Coefficient

                          1       1    1px               0.081064       0.061656
                          1       1    1py               0.081064       0.061656
                          1       1    1pz               0.081064       0.061656

                          2       1    1s                0.110719       0.136797

                          3       1    1px               0.283969       0.295480
                          3       1    1py               0.283969       0.295480
                          3       1    1pz               0.283969       0.295480

                          4       1    1s                0.308655       0.295131

                          5       1    1dx2              0.339721       0.248813
                          5       1    1dxy              0.339721       0.430957
                          5       1    1dxz              0.339721       0.430957
                          5       1    1dy2              0.339721       0.248813
                          5       1    1dyz              0.339721       0.430957
                          5       1    1dz2              0.339721       0.248813

                          6       1    1fx3              0.388498       0.175420
                          6       1    1fx2y             0.388498       0.392251
                          6       1    1fx2z             0.388498       0.392251
                          6       1    1fxy2             0.388498       0.392251
                          6       1    1fxyz             0.388498       0.679399
                          6       1    1fxz2             0.388498       0.392251
                          6       1    1fy3              0.388498       0.175420
                          6       1    1fy2z             0.388498       0.392251
                          6       1    1fyz2             0.388498       0.392251
                          6       1    1fz3              0.388498       0.175420

                          7       1    1gx4              0.912623       0.865440
                          7       1    1gx3y             0.912623       2.289738
                          7       1    1gx3z             0.912623       2.289738
                          7       1    1gx2y2            0.912623       2.956039
                          7       1    1gx2yz            0.912623       5.120010
                          7       1    1gx2z2            0.912623       2.956039
                          7       1    1gxy3             0.912623       2.289738
                          7       1    1gxy2z            0.912623       5.120010
                          7       1    1gxyz2            0.912623       5.120010
                          7       1    1gxz3             0.912623       2.289738
                          7       1    1gy4              0.912623       0.865440
                          7       1    1gy3z             0.912623       2.289738
                          7       1    1gy2z2            0.912623       2.956039
                          7       1    1gyz3             0.912623       2.289738
                          7       1    1gz4              0.912623       0.865440

                          8       1    1px               0.933893       1.308614
                          8       1    1py               0.933893       1.308614
                          8       1    1pz               0.933893       1.308614

                          9       1    1s                0.994894       0.709974

                         10       1    1fx3              1.019373       1.537107
                         10       1    1fx2y             1.019373       3.437075
                         10       1    1fx2z             1.019373       3.437075
                         10       1    1fxy2             1.019373       3.437075
                         10       1    1fxyz             1.019373       5.953188
                         10       1    1fxz2             1.019373       3.437075
                         10       1    1fy3              1.019373       1.537107
                         10       1    1fy2z             1.019373       3.437075
                         10       1    1fyz2             1.019373       3.437075
                         10       1    1fz3              1.019373       1.537107

                         11       1    1dx2              1.138737       2.066096
                         11       1    1dxy              1.138737       3.578583
                         11       1    1dxz              1.138737       3.578583
                         11       1    1dy2              1.138737       2.066096
                         11       1    1dyz              1.138737       3.578583
                         11       1    1dz2              1.138737       2.066096

                         12       1    1px               3.071309       5.795548
                         12       1    1py               3.071309       5.795548
                         12       1    1pz               3.071309       5.795548

                         13       1    1s                3.206864       1.707932

                         14       1    1fx3              6.510437      99.672939
                         14       1    1fx2y             6.510437     222.875468
                         14       1    1fx2z             6.510437     222.875468
                         14       1    1fxy2             6.510437     222.875468
                         14       1    1fxyz             6.510437     386.031635
                         14       1    1fxz2             6.510437     222.875468
                         14       1    1fy3              6.510437      99.672939
                         14       1    1fy2z             6.510437     222.875468
                         14       1    1fyz2             6.510437     222.875468
                         14       1    1fz3              6.510437      99.672939

                         15       1    1px              10.100670      25.667160
                         15       1    1py              10.100670      25.667160
                         15       1    1pz              10.100670      25.667160

                         16       1    1s               10.336759       4.108643

                         17       1    1dx2             11.616992     120.316008
                         17       1    1dxy             11.616992     208.393439
                         17       1    1dxz             11.616992     208.393439
                         17       1    1dy2             11.616992     120.316008
                         17       1    1dyz             11.616992     208.393439
                         17       1    1dz2             11.616992     120.316008

                         18       1    1dx2             18.708830     277.007199
                         18       1    1dxy             18.708830     479.790543
                         18       1    1dxz             18.708830     479.790543
                         18       1    1dy2             18.708830     277.007199
                         18       1    1dyz             18.708830     479.790543
                         18       1    1dz2             18.708830     277.007199

       Atomic covalent radius [Angstrom]:                                  0.990

       Atomic van der Waals radius [Angstrom]:                             1.750

     The atoms of this atomic kind are PAW atoms (GAPW):
       Hard Gaussian function radius:                                      1.512
       Rho0 radius:                                                        1.512
       Maximum GTO radius used for PAW projector construction:            24.566

     GAPW Soft Basis Set                                        aug-cc-pVDZ_soft

       Number of orbital shell sets:                                           6
       Number of orbital shells:                                              11
       Number of primitive Cartesian functions:                               10
       Number of Cartesian basis functions:                                   29
       Number of spherical basis functions:                                   27
       Norm type:                                                              2

       Normalised Cartesian orbitals:

                        Set   Shell   Orbital            Exponent    Coefficient

                          1       1    1px               0.046600       0.030862
                          1       1    1py               0.046600       0.030862
                          1       1    1pz               0.046600       0.030862

                          2       1    1s                0.060800       0.087265

                          3       1    1px               1.624000       0.396255
                                                         0.532200       0.001177
                                                         0.162000       0.000276
                          3       1    1py               1.624000       0.396255
                                                         0.532200       0.001177
                                                         0.162000       0.000276
                          3       1    1pz               1.624000       0.396255
                                                         0.532200       0.001177
                                                         0.162000       0.000276

                          3       2    2px               1.624000       0.233779
                                                         0.532200       0.375444
                                                         0.162000       0.070799
                          3       2    2py               1.624000       0.233779
                                                         0.532200       0.375444
                                                         0.162000       0.070799
                          3       2    2pz               1.624000       0.233779
                                                         0.532200       0.375444
                                                         0.162000       0.070799

                          3       3    3px               1.624000       0.000000
                                                         0.532200       0.000000
                                                         0.162000       0.146499
                          3       3    3py               1.624000       0.000000
                                                         0.532200       0.000000
                                                         0.162000       0.146499
                          3       3    3pz               1.624000       0.000000
                                                         0.532200       0.000000
                                                         0.162000       0.146499

                          4       1    1s                2.575000      -0.004850
                                                         0.537100       0.000416
                                                         0.193800      -0.000083

                          4       2    2s                2.575000       0.884786
                                                         0.537100       0.018849
                                                         0.193800      -0.001922

                          4       3    3s                2.575000      -0.592210
                                                         0.537100       0.285489
                                                         0.193800       0.117069

                          4       4    4s                2.575000       0.000000
                                                         0.537100       0.000000
                                                         0.193800       0.208173

                          5       1    1dx2              0.196000       0.095029
                          5       1    1dxy              0.196000       0.164596
                          5       1    1dxz              0.196000       0.164596
                          5       1    1dy2              0.196000       0.095029
                          5       1    1dyz              0.196000       0.164596
                          5       1    1dz2              0.196000       0.095029

                          6       1    1dx2              0.600000       0.673247
                          6       1    1dxy              0.600000       1.166097
                          6       1    1dxz              0.600000       1.166097
                          6       1    1dy2              0.600000       0.673247
                          6       1    1dyz              0.600000       1.166097
                          6       1    1dz2              0.600000       0.673247

     AE Potential information for                                            ALL

       Description:                                       All-electron potential
                                          Krack, Parrinello, PCCP 2, 2105 (2000)

       Gaussian exponent of the core charge distribution:               2.974420
       Electronic configuration (s p d ...):                           6  11   0

  2. Atomic kind: C                                     Number of atoms:       5

     Orbital Basis Set                                               aug-cc-pVDZ

       Number of orbital shell sets:                                           6
       Number of orbital shells:                                               9
       Number of primitive Cartesian functions:                               17
       Number of Cartesian basis functions:                                   25
       Number of spherical basis functions:                                   23
       Norm type:                                                              2

       Normalised Cartesian orbitals:

                        Set   Shell   Orbital            Exponent    Coefficient

                          1       1    1px               0.040410       0.025826
                          1       1    1py               0.040410       0.025826
                          1       1    1pz               0.040410       0.025826

                          2       1    1s                0.046900       0.071827

                          3       1    1dx2              0.151000       0.060203
                          3       1    1dxy              0.151000       0.104275
                          3       1    1dxz              0.151000       0.104275
                          3       1    1dy2              0.151000       0.060203
                          3       1    1dyz              0.151000       0.104275
                          3       1    1dz2              0.151000       0.060203

                          4       1    1px               9.439000       0.898722
                                                         2.002000       0.711071
                                                         0.545600       0.339917
                                                         0.151700       0.063270
                          4       1    1py               9.439000       0.898722
                                                         2.002000       0.711071
                                                         0.545600       0.339917
                                                         0.151700       0.063270
                          4       1    1pz               9.439000       0.898722
                                                         2.002000       0.711071
                                                         0.545600       0.339917
                                                         0.151700       0.063270

                          4       2    2px               9.439000       0.000000
                                                         2.002000       0.000000
                                                         0.545600       0.000000
                                                         0.151700       0.134950
                          4       2    2py               9.439000       0.000000
                                                         2.002000       0.000000
                                                         0.545600       0.000000
                                                         0.151700       0.134950
                          4       2    2pz               9.439000       0.000000
                                                         2.002000       0.000000
                                                         0.545600       0.000000
                                                         0.151700       0.134950

                          5       1    1s             6665.000000       0.363803
                                                      1000.000000       0.675392
                                                       228.000000       1.132301
                                                        64.710000       1.654004
                                                        21.060000       1.924978
                                                         7.495000       1.448149
                                                         2.797000       0.439427
                                                         0.521500       0.006650
                                                         0.159600      -0.000574

                          5       2    2s             6665.000000      -0.076756
                                                      1000.000000      -0.146257
                                                       228.000000      -0.239407
                                                        64.710000      -0.379069
                                                        21.060000      -0.448104
                                                         7.495000      -0.484201
                                                         2.797000      -0.196168
                                                         0.521500       0.238162
                                                         0.159600       0.104468

                          5       3    3s             6665.000000       0.000000
                                                      1000.000000       0.000000
                                                       228.000000       0.000000
                                                        64.710000       0.000000
                                                        21.060000       0.000000
                                                         7.495000       0.000000
                                                         2.797000       0.000000
                                                         0.521500       0.000000
                                                         0.159600       0.179964

                          6       1    1dx2              0.550000       0.578155
                          6       1    1dxy              0.550000       1.001394
                          6       1    1dxz              0.550000       1.001394
                          6       1    1dy2              0.550000       0.578155
                          6       1    1dyz              0.550000       1.001394
                          6       1    1dz2              0.550000       0.578155

     RI Auxiliary Basis Set                                    aug-cc-pVDZ-OPTRI

       Number of orbital shell sets:                                          17
       Number of orbital shells:                                              17
       Number of primitive Cartesian functions:                               17
       Number of Cartesian basis functions:                                   88
       Number of spherical basis functions:                                   69
       Norm type:                                                              2

       Normalised Cartesian orbitals:

                        Set   Shell   Orbital            Exponent    Coefficient

                          1       1    1s                0.073601       0.100710

                          2       1    1px               0.095295       0.075471
                          2       1    1py               0.095295       0.075471
                          2       1    1pz               0.095295       0.075471

                          3       1    1px               0.227892       0.224441
                          3       1    1py               0.227892       0.224441
                          3       1    1pz               0.227892       0.224441

                          4       1    1fx3              0.301896       0.099457
                          4       1    1fx2y             0.301896       0.222392
                          4       1    1fx2z             0.301896       0.222392
                          4       1    1fxy2             0.301896       0.222392
                          4       1    1fxyz             0.301896       0.385194
                          4       1    1fxz2             0.301896       0.222392
                          4       1    1fy3              0.301896       0.099457
                          4       1    1fy2z             0.301896       0.222392
                          4       1    1fyz2             0.301896       0.222392
                          4       1    1fz3              0.301896       0.099457

                          5       1    1dx2              0.333056       0.240334
                          5       1    1dxy              0.333056       0.416270
                          5       1    1dxz              0.333056       0.416270
                          5       1    1dy2              0.333056       0.240334
                          5       1    1dyz              0.333056       0.416270
                          5       1    1dz2              0.333056       0.240334

                          6       1    1px               0.481813       0.572187
                          6       1    1py               0.481813       0.572187
                          6       1    1pz               0.481813       0.572187

                          7       1    1s                0.499106       0.423209

                          8       1    1fx3              0.891821       1.137835
                          8       1    1fx2y             0.891821       2.544276
                          8       1    1fx2z             0.891821       2.544276
                          8       1    1fxy2             0.891821       2.544276
                          8       1    1fxyz             0.891821       4.406816
                          8       1    1fxz2             0.891821       2.544276
                          8       1    1fy3              0.891821       1.137835
                          8       1    1fy2z             0.891821       2.544276
                          8       1    1fyz2             0.891821       2.544276
                          8       1    1fz3              0.891821       1.137835

                          9       1    1gx4              0.973489       1.033584
                          9       1    1gx3y             0.973489       2.734606
                          9       1    1gx3z             0.973489       2.734606
                          9       1    1gx2y2            0.973489       3.530362
                          9       1    1gx2yz            0.973489       6.114766
                          9       1    1gx2z2            0.973489       3.530362
                          9       1    1gxy3             0.973489       2.734606
                          9       1    1gxy2z            0.973489       6.114766
                          9       1    1gxyz2            0.973489       6.114766
                          9       1    1gxz3             0.973489       2.734606
                          9       1    1gy4              0.973489       1.033584
                          9       1    1gy3z             0.973489       2.734606
                          9       1    1gy2z2            0.973489       3.530362
                          9       1    1gyz3             0.973489       2.734606
                          9       1    1gz4              0.973489       1.033584

                         10       1    1px               1.018656       1.458729
                         10       1    1py               1.018656       1.458729
                         10       1    1pz               1.018656       1.458729

                         11       1    1dx2              1.381969       2.899222
                         11       1    1dxy              1.381969       5.021600
                         11       1    1dxz              1.381969       5.021600
                         11       1    1dy2              1.381969       2.899222
                         11       1    1dyz              1.381969       5.021600
                         11       1    1dz2              1.381969       2.899222

                         12       1    1s                1.807741       1.111123

                         13       1    1px               2.153659       3.718872
                         13       1    1py               2.153659       3.718872
                         13       1    1pz               2.153659       3.718872

                         14       1    1fx3              2.652750      13.221209
                         14       1    1fx2y             2.652750      29.563522
                         14       1    1fx2z             2.652750      29.563522
                         14       1    1fxy2             2.652750      29.563522
                         14       1    1fxyz             2.652750      51.205523
                         14       1    1fxz2             2.652750      29.563522
                         14       1    1fy3              2.652750      13.221209
                         14       1    1fy2z             2.652750      29.563522
                         14       1    1fyz2             2.652750      29.563522
                         14       1    1fz3              2.652750      13.221209

                         15       1    1dx2              3.347320      13.634199
                         15       1    1dxy              3.347320      23.615125
                         15       1    1dxz              3.347320      23.615125
                         15       1    1dy2              3.347320      13.634199
                         15       1    1dyz              3.347320      23.615125
                         15       1    1dz2              3.347320      13.634199

                         16       1    1s                6.547563       2.917225

                         17       1    1dx2              8.107669      64.117632
                         17       1    1dxy              8.107669     111.054996
                         17       1    1dxz              8.107669     111.054996
                         17       1    1dy2              8.107669      64.117632
                         17       1    1dyz              8.107669     111.054996
                         17       1    1dz2              8.107669      64.117632

       Atomic covalent radius [Angstrom]:                                  0.770

       Atomic van der Waals radius [Angstrom]:                             1.700

     The atoms of this atomic kind are PAW atoms (GAPW):
       Hard Gaussian function radius:                                      1.512
       Rho0 radius:                                                        1.512
       Maximum GTO radius used for PAW projector construction:            24.566

     GAPW Soft Basis Set                                        aug-cc-pVDZ_soft

       Number of orbital shell sets:                                           6
       Number of orbital shells:                                               9
       Number of primitive Cartesian functions:                               10
       Number of Cartesian basis functions:                                   25
       Number of spherical basis functions:                                   23
       Norm type:                                                              2

       Normalised Cartesian orbitals:

                        Set   Shell   Orbital            Exponent    Coefficient

                          1       1    1px               0.040410       0.025826
                          1       1    1py               0.040410       0.025826
                          1       1    1pz               0.040410       0.025826

                          2       1    1s                0.046900       0.071827

                          3       1    1dx2              0.151000       0.060203
                          3       1    1dxy              0.151000       0.104275
                          3       1    1dxz              0.151000       0.104275
                          3       1    1dy2              0.151000       0.060203
                          3       1    1dyz              0.151000       0.104275
                          3       1    1dz2              0.151000       0.060203

                          4       1    1px               2.002000       0.711071
                                                         0.545600       0.339917
                                                         0.151700       0.063270
                          4       1    1py               2.002000       0.711071
                                                         0.545600       0.339917
                                                         0.151700       0.063270
                          4       1    1pz               2.002000       0.711071
                                                         0.545600       0.339917
                                                         0.151700       0.063270

                          4       2    2px               2.002000       0.000000
                                                         0.545600       0.000000
                                                         0.151700       0.134950
                          4       2    2py               2.002000       0.000000
                                                         0.545600       0.000000
                                                         0.151700       0.134950
                          4       2    2pz               2.002000       0.000000
                                                         0.545600       0.000000
                                                         0.151700       0.134950

                          5       1    1s                2.797000       0.439427
                                                         0.521500       0.006650
                                                         0.159600      -0.000574

                          5       2    2s                2.797000      -0.196168
                                                         0.521500       0.238162
                                                         0.159600       0.104468

                          5       3    3s                2.797000       0.000000
                                                         0.521500       0.000000
                                                         0.159600       0.179964

                          6       1    1dx2              0.550000       0.578155
                          6       1    1dxy              0.550000       1.001394
                          6       1    1dxz              0.550000       1.001394
                          6       1    1dy2              0.550000       0.578155
                          6       1    1dyz              0.550000       1.001394
                          6       1    1dz2              0.550000       0.578155

     AE Potential information for                                            ALL

       Description:                                       All-electron potential
                                          Krack, Parrinello, PCCP 2, 2105 (2000)

       Gaussian exponent of the core charge distribution:               4.109048
       Electronic configuration (s p d ...):                           4   2   0

  3. Atomic kind: N                                     Number of atoms:       2

     Orbital Basis Set                                               aug-cc-pVDZ

       Number of orbital shell sets:                                           6
       Number of orbital shells:                                               9
       Number of primitive Cartesian functions:                               17
       Number of Cartesian basis functions:                                   25
       Number of spherical basis functions:                                   23
       Norm type:                                                              2

       Normalised Cartesian orbitals:

                        Set   Shell   Orbital            Exponent    Coefficient

                          1       1    1px               0.056110       0.038926
                          1       1    1py               0.056110       0.038926
                          1       1    1pz               0.056110       0.038926

                          2       1    1s                0.061240       0.087738

                          3       1    1px              13.550000       1.479258
                                                         2.917000       1.180072
                                                         0.797300       0.548036
                                                         0.218500       0.098423
                          3       1    1py              13.550000       1.479258
                                                         2.917000       1.180072
                                                         0.797300       0.548036
                                                         0.218500       0.098423
                          3       1    1pz              13.550000       1.479258
                                                         2.917000       1.180072
                                                         0.797300       0.548036
                                                         0.218500       0.098423

                          3       2    2px              13.550000       0.000000
                                                         2.917000       0.000000
                                                         0.797300       0.000000
                                                         0.218500       0.212939
                          3       2    2py              13.550000       0.000000
                                                         2.917000       0.000000
                                                         0.797300       0.000000
                                                         0.218500       0.212939
                          3       2    2pz              13.550000       0.000000
                                                         2.917000       0.000000
                                                         0.797300       0.000000
                                                         0.218500       0.212939

                          4       1    1s             9046.000000       0.462754
                                                      1357.000000       0.858723
                                                       309.300000       1.440591
                                                        87.730000       2.108533
                                                        28.560000       2.454153
                                                        10.210000       1.825915
                                                         3.838000       0.543758
                                                         0.746600       0.008838
                                                         0.224800      -0.000666

                          4       2    2s             9046.000000      -0.101145
                                                      1357.000000      -0.192492
                                                       309.300000      -0.314968
                                                        87.730000      -0.501437
                                                        28.560000      -0.593976
                                                        10.210000      -0.643503
                                                         3.838000      -0.238093
                                                         0.746600       0.314268
                                                         0.224800       0.134678

                          4       3    3s             9046.000000       0.000000
                                                      1357.000000       0.000000
                                                       309.300000       0.000000
                                                        87.730000       0.000000
                                                        28.560000       0.000000
                                                        10.210000       0.000000
                                                         3.838000       0.000000
                                                         0.746600       0.000000
                                                         0.224800       0.232679

                          5       1    1dx2              0.230000       0.125728
                          5       1    1dxy              0.230000       0.217768
                          5       1    1dxz              0.230000       0.217768
                          5       1    1dy2              0.230000       0.125728
                          5       1    1dyz              0.230000       0.217768
                          5       1    1dz2              0.230000       0.125728

                          6       1    1dx2              0.817000       1.155575
                          6       1    1dxy              0.817000       2.001514
                          6       1    1dxz              0.817000       2.001514
                          6       1    1dy2              0.817000       1.155575
                          6       1    1dyz              0.817000       2.001514
                          6       1    1dz2              0.817000       1.155575

     RI Auxiliary Basis Set                                    aug-cc-pVDZ-OPTRI

       Number of orbital shell sets:                                          17
       Number of orbital shells:                                              17
       Number of primitive Cartesian functions:                               17
       Number of Cartesian basis functions:                                   88
       Number of spherical basis functions:                                   69
       Norm type:                                                              2

       Normalised Cartesian orbitals:

                        Set   Shell   Orbital            Exponent    Coefficient

                          1       1    1s                0.091449       0.118521

                          2       1    1px               0.115183       0.095648
                          2       1    1py               0.115183       0.095648
                          2       1    1pz               0.115183       0.095648

                          3       1    1px               0.322548       0.346484
                          3       1    1py               0.322548       0.346484
                          3       1    1pz               0.322548       0.346484

                          4       1    1dx2              0.422464       0.364369
                          4       1    1dxy              0.422464       0.631106
                          4       1    1dxz              0.422464       0.631106
                          4       1    1dy2              0.422464       0.364369
                          4       1    1dyz              0.422464       0.631106
                          4       1    1dz2              0.422464       0.364369

                          5       1    1fx3              0.510986       0.324994
                          5       1    1fx2y             0.510986       0.726708
                          5       1    1fx2z             0.510986       0.726708
                          5       1    1fxy2             0.510986       0.726708
                          5       1    1fxyz             0.510986       1.258694
                          5       1    1fxz2             0.510986       0.726708
                          5       1    1fy3              0.510986       0.324994
                          5       1    1fy2z             0.510986       0.726708
                          5       1    1fyz2             0.510986       0.726708
                          5       1    1fz3              0.510986       0.324994

                          6       1    1px               0.679523       0.879418
                          6       1    1py               0.679523       0.879418
                          6       1    1pz               0.679523       0.879418

                          7       1    1s                0.726628       0.560911

                          8       1    1fx3              1.397681       3.126962
                          8       1    1fx2y             1.397681       6.992099
                          8       1    1fx2z             1.397681       6.992099
                          8       1    1fxy2             1.397681       6.992099
                          8       1    1fxyz             1.397681      12.110671
                          8       1    1fxz2             1.397681       6.992099
                          8       1    1fy3              1.397681       3.126962
                          8       1    1fy2z             1.397681       6.992099
                          8       1    1fyz2             1.397681       6.992099
                          8       1    1fz3              1.397681       3.126962

                          9       1    1px               1.431573       2.232066
                          9       1    1py               1.431573       2.232066
                          9       1    1pz               1.431573       2.232066

                         10       1    1gx4              1.484177       3.296257
                         10       1    1gx3y             1.484177       8.721077
                         10       1    1gx3z             1.484177       8.721077
                         10       1    1gx2y2            1.484177      11.258862
                         10       1    1gx2yz            1.484177      19.500921
                         10       1    1gx2z2            1.484177      11.258862
                         10       1    1gxy3             1.484177       8.721077
                         10       1    1gxy2z            1.484177      19.500921
                         10       1    1gxyz2            1.484177      19.500921
                         10       1    1gxz3             1.484177       8.721077
                         10       1    1gy4              1.484177       3.296257
                         10       1    1gy3z             1.484177       8.721077
                         10       1    1gy2z2            1.484177      11.258862
                         10       1    1gyz3             1.484177       8.721077
                         10       1    1gz4              1.484177       3.296257

                         11       1    1dx2              1.846235       4.812954
                         11       1    1dxy              1.846235       8.336280
                         11       1    1dxz              1.846235       8.336280
                         11       1    1dy2              1.846235       4.812954
                         11       1    1dyz              1.846235       8.336280
                         11       1    1dz2              1.846235       4.812954

                         12       1    1s                2.651372       1.480857

                         13       1    1px               3.015942       5.665247
                         13       1    1py               3.015942       5.665247
                         13       1    1pz               3.015942       5.665247

                         14       1    1dx2              3.588066      15.396259
                         14       1    1dxy              3.588066      26.667102
                         14       1    1dxz              3.588066      26.667102
                         14       1    1dy2              3.588066      15.396259
                         14       1    1dyz              3.588066      26.667102
                         14       1    1dz2              3.588066      15.396259

                         15       1    1fx3              4.092837      35.075951
                         15       1    1fx2y             4.092837      78.432212
                         15       1    1fx2z             4.092837      78.432212
                         15       1    1fxy2             4.092837      78.432212
                         15       1    1fxyz             4.092837     135.848576
                         15       1    1fxz2             4.092837      78.432212
                         15       1    1fy3              4.092837      35.075951
                         15       1    1fy2z             4.092837      78.432212
                         15       1    1fyz2             4.092837      78.432212
                         15       1    1fz3              4.092837      35.075951

                         16       1    1dx2              6.973227      49.251404
                         16       1    1dxy              6.973227      85.305933
                         16       1    1dxz              6.973227      85.305933
                         16       1    1dy2              6.973227      49.251404
                         16       1    1dyz              6.973227      85.305933
                         16       1    1dz2              6.973227      49.251404

                         17       1    1s                9.674522       3.909599

       Atomic covalent radius [Angstrom]:                                  0.750

       Atomic van der Waals radius [Angstrom]:                             1.550

     The atoms of this atomic kind are PAW atoms (GAPW):
       Hard Gaussian function radius:                                      1.512
       Rho0 radius:                                                        1.512
       Maximum GTO radius used for PAW projector construction:            24.566

     GAPW Soft Basis Set                                        aug-cc-pVDZ_soft

       Number of orbital shell sets:                                           6
       Number of orbital shells:                                               9
       Number of primitive Cartesian functions:                               10
       Number of Cartesian basis functions:                                   25
       Number of spherical basis functions:                                   23
       Norm type:                                                              2

       Normalised Cartesian orbitals:

                        Set   Shell   Orbital            Exponent    Coefficient

                          1       1    1px               0.056110       0.038926
                          1       1    1py               0.056110       0.038926
                          1       1    1pz               0.056110       0.038926

                          2       1    1s                0.061240       0.087738

                          3       1    1px               2.917000       1.180072
                                                         0.797300       0.548036
                                                         0.218500       0.098423
                          3       1    1py               2.917000       1.180072
                                                         0.797300       0.548036
                                                         0.218500       0.098423
                          3       1    1pz               2.917000       1.180072
                                                         0.797300       0.548036
                                                         0.218500       0.098423

                          3       2    2px               2.917000       0.000000
                                                         0.797300       0.000000
                                                         0.218500       0.212939
                          3       2    2py               2.917000       0.000000
                                                         0.797300       0.000000
                                                         0.218500       0.212939
                          3       2    2pz               2.917000       0.000000
                                                         0.797300       0.000000
                                                         0.218500       0.212939

                          4       1    1s                3.838000       0.543758
                                                         0.746600       0.008838
                                                         0.224800      -0.000666

                          4       2    2s                3.838000      -0.238093
                                                         0.746600       0.314268
                                                         0.224800       0.134678

                          4       3    3s                3.838000       0.000000
                                                         0.746600       0.000000
                                                         0.224800       0.232679

                          5       1    1dx2              0.230000       0.125728
                          5       1    1dxy              0.230000       0.217768
                          5       1    1dxz              0.230000       0.217768
                          5       1    1dy2              0.230000       0.125728
                          5       1    1dyz              0.230000       0.217768
                          5       1    1dz2              0.230000       0.125728

                          6       1    1dx2              0.817000       1.155575
                          6       1    1dxy              0.817000       2.001514
                          6       1    1dxz              0.817000       2.001514
                          6       1    1dy2              0.817000       1.155575
                          6       1    1dyz              0.817000       2.001514
                          6       1    1dz2              0.817000       1.155575

     AE Potential information for                                            ALL

       Description:                                       All-electron potential
                                          Krack, Parrinello, PCCP 2, 2105 (2000)

       Gaussian exponent of the core charge distribution:               5.979100
       Electronic configuration (s p d ...):                           4   3   0

  4. Atomic kind: S                                     Number of atoms:       1

     Orbital Basis Set                                               aug-cc-pVDZ

       Number of orbital shell sets:                                           6
       Number of orbital shells:                                              11
       Number of primitive Cartesian functions:                               24
       Number of Cartesian basis functions:                                   29
       Number of spherical basis functions:                                   27
       Norm type:                                                              2

       Normalised Cartesian orbitals:

[...]
 tddfpt_apply_coulomb               180  9.0    0.003    0.004   86.026   86.424
 ps_wavelet_solve                   271 10.3   44.632   54.087   80.214   81.373
 fft_wrap_pw1pw2                   5525 11.0    0.092    0.135   77.194   77.920
 fft_wrap_pw1pw2_250               3893 12.1    3.477    3.894   73.800   74.526
 fft3d_ps                          5525 13.0   19.147   22.374   67.138   68.086
 qs_rho_update_rho_low              273  7.6    0.003    0.004   50.596   50.605
 mp_alltoall_d54                    271 11.3   14.132   50.159   14.132   50.159
 calculate_rho_elec                 273  8.6    0.999    1.262   48.547   48.558
 mp_alltoall_z22v                  5525 15.0   45.012   46.472   45.012   46.472
 integrate_four_center              451  9.8   10.006   20.351   35.438   35.617
 integrate_v_rspace                 271  9.0    0.007    0.008   31.875   32.197
 density_rs2pw                      273  9.6    0.013    0.017   29.459   31.791
 xc_pw_derive                      1629 11.0    0.011    0.014   27.623   27.918
 potential_pw2rs                    271 10.0    0.085    0.095   25.667   25.930
 x_to_yz                           2534 13.7    1.406    1.846   25.033   25.840
 mp_alltoall_d45                    272 11.3   21.022   25.207   21.022   25.207
 transfer_rs2pw                    1365 10.6    0.028    0.049   22.219   24.441
 transfer_pw2rs                    1356 10.9    0.018    0.021   22.849   23.553
 tddfpt_apply_hfx                     9  8.0    0.004    0.005   23.550   23.550
 yz_to_x                           2447 14.3    1.067    1.176   22.405   23.338
 mp_sync                           2405 11.4   11.881   22.560   11.881   22.560
 tddfpt_apply_xc_analytic           180  9.0    0.068    0.077   21.767   21.931
 grid_collocate_task_list           273  9.6   17.403   20.865   17.403   20.865
 tddft_hfx_matrix                   360  9.0    0.010    0.011   19.908   20.036
 mp_alltoall_d11v                 16248 11.6   12.281   18.853   12.281   18.853
 xc_pw_divergence                   271 10.7    0.006    0.007   18.242   18.529
 mp_waitany                       63142 12.7   14.061   17.370   14.061   17.370
 hfx_ks_matrix                       91  8.0    0.004    0.004   15.552   15.609
 prepare_gapw_den                   272  8.7    0.006    0.007   14.217   14.261
 qs_vxc_create                       91  8.0    0.001    0.001   13.105   13.106
 xc_vxc_pw_create                    91  9.0    0.360    0.459   13.103   13.104
 xc_calc_2nd_deriv_analytical       900 10.2    0.524    0.639   12.441   12.532
 transfer_rs2pw_250                 546 11.6    2.287    2.505    9.718   12.352
 sum_up_and_integrate                91  8.0    0.001    0.001   10.373   10.419
 gspace_mixing                       90  5.0    0.328    0.416   10.322   10.322
 transfer_pw2rs_250                 543 11.7    3.088    3.325    9.612   10.271
 integrate_vhg0_rspace              271  9.3    0.423    0.546   10.064   10.145
 put_rho0_on_grid                   272  9.7    1.039    1.388    9.964   10.008
 transfer_pw2rs_30                  271 12.0    5.319    6.351    9.412    9.617
 transfer_rs2pw_30                  273 11.6    2.955    3.186    8.389    8.592
 broyden_mixing                      90  6.0    7.921    8.332    8.212    8.456
 gaVxcgb_GC                         542  9.7    0.349    8.068    0.349    8.068
 mp_waitall_1                    367342 13.3    5.762    7.968    5.762    7.968
 mp_sum_d                          7281  7.5    5.969    6.793    5.969    6.793
 mp_sendrecv_dv                   69342 12.6    6.352    6.760    6.352    6.760
 calculate_xc_2nd_deriv_atom        180  9.0    0.076    1.018    0.341    6.661
 xc_rho_set_and_dset_create          92 10.0    0.253    0.296    6.067    6.576
 cp_dbcsr_sm_fm_multiply           1126  8.6    0.023    0.027    6.348    6.467
 mp_sum_dm                         9928  9.8    5.742    6.304    5.742    6.304
 rs_gather_matrices                 271 10.0    0.019    0.038    5.134    6.267
 grid_integrate_task_list           271 10.0    1.066    5.993    1.066    5.993
 powell_optimize                2198778 11.0    5.405    5.678    5.405    5.678
 integrate_four_center_main         451 10.8    0.288    0.985    3.684    5.217
 mp_isend_dm3                     10886 12.7    1.427    4.953    1.427    4.953
 integrate_four_center_bin        41786 11.8    3.396    4.848    3.396    4.848
 calc_screening_functions             1 10.0    1.477    1.505    4.430    4.594
 dbcsr_complete_redistribute       3812 10.4    0.154    0.197    4.372    4.504
 transfer_rs2pw_90                  273 11.6    0.405    0.438    2.660    4.251
 cp_fm_syevd                        143  7.2    0.001    0.001    4.080    4.089
 qs_scf_new_mos                      91  5.0    0.001    0.001    3.989    3.999
 cp_fm_redistribute_end             143  8.2    2.000    3.898    2.018    3.908
 mp_isendrecv_dv                 183388 12.2    1.577    3.781    1.577    3.781
 cp_fm_syevd_base                   143  8.2    1.881    3.772    1.881    3.772
 cp2k_distribution_to_z_slices      271 10.3    1.959    2.174    3.460    3.704
 pw_scatter_p                      2805 12.7    3.275    3.594    3.275    3.594
 calc_pair_dist_radii                 1 10.0    0.990    1.005    3.443    3.574
 calculate_rho_atom                1088  9.7    2.213    3.324    2.213    3.324
 eigensolver_symm                    91  6.0    0.003    0.003    3.255    3.260
 calculate_vxc_atom                  91  8.0    0.066    0.304    3.039    3.040
 copy_fm_to_dbcsr                  2569  9.5    0.012    0.013    2.879    3.016
 copy_dbcsr_to_fm                  1241  9.3    0.017    0.018    2.897    2.982
 dbcsr_multiply_generic            1577 10.3    0.069    0.075    2.646    2.711
 transfer_pw2rs_90                  271 12.0    0.395    0.439    2.324    2.692
 fft_wrap_pw1pw2_90                 544 11.8    0.106    0.122    2.246    2.330
 calculate_rho_atom_coeff           273  8.6    0.091    0.142    2.045    2.047
 mp_sum_dv                        26068  8.9    1.734    1.996    1.734    1.996
 cp_dbcsr_sm_fm_multiply_core      1126  9.6    0.003    0.004    1.800    1.855
 mp_alltoall_i11v                 12678 11.4    1.830    1.832    1.830    1.832
 pw_gather_p                       2720 13.3    1.711    1.816    1.711    1.816
 mp_irecv_dm3                     10886 12.7    0.578    1.719    0.578    1.719
 transfer_pw2rs_10                  271 12.0    0.527    0.577    1.484    1.679
 pw_integral_ab_c1d_c1d_gs          271 10.3    1.433    1.449    1.608    1.635
 rs_grid_zero                      1358 11.9    1.285    1.571    1.285    1.571
 tddfpt_orthonormalize_psi1_psi      10  6.9    0.024    0.027    1.537    1.538
 transfer_rs2pw_10                  273 11.6    0.506    0.533    1.423    1.532
 xc_functional_eval                1176 10.9    0.001    0.004    0.997    1.502
 pbe_lda_eval                      1176 11.9    0.996    1.497    0.996    1.497
 qs_energies_init_hamiltonians        1  3.0    0.000    0.000    1.451    1.451
 cp_dbcsr_plus_fm_fm_t              271  8.3    0.004    0.005    1.434    1.449
 build_core_hamiltonian_matrix        1  4.0    0.000    0.000    1.444    1.444
 overlap_condnum                      1  5.0    0.000    0.000    1.439    1.441
 pw_copy_to_array                  2720 13.3    0.826    1.427    0.826    1.427
 create_qs_kind_set                   1  2.0    0.000    0.000    1.422    1.423
 read_qs_kind                         4  3.0    0.815    0.825    1.422    1.422
 parallel_gemm_fm                  1699  8.2    0.002    0.003    1.367    1.391
 parallel_gemm_fm_gemm             1699  9.2    0.002    0.003    1.365    1.388
 cp_fm_gemm                        1699 10.2    1.362    1.386    1.362    1.386
 arnoldi_conjugate_gradient           5  6.0    0.021    0.024    1.362    1.362
 pw_derive                         2442 11.8    1.277    1.362    1.277    1.362
 mp_isend_dv                     103846 13.5    0.836    1.359    0.836    1.359
 multiply_cannon                   1577 11.3    0.149    0.156    1.246    1.318
 tddfpt_print_nto_analysis            1  6.0    0.002    0.003    1.307    1.307
 dbcsr_desymmetrize_deep           1242 10.3    0.025    0.030    1.201    1.299
 pw_copy                           3710 10.9    1.015    1.080    1.015    1.080
 tddfpt_apply_energy_diff             9  8.0    0.001    0.001    1.075    1.075
 integrate_four_center_getP         451 10.8    0.125    0.137    1.045    1.060
 multiply_cannon_loop              1577 12.3    0.231    0.260    0.921    0.997
 integrate_four_center_dist_KS      451 10.8    0.117    0.126    0.968    0.972
 calculate_rho0_atom               1088  9.7    0.901    0.942    0.901    0.942
 tddfpt_compute_residual_vects        8  7.0    0.001    0.001    0.938    0.938
 make_m2s                          3154 11.3    0.043    0.047    0.892    0.937
 mp_alltoall_i22                   5054 11.4    0.644    0.849    0.644    0.849
 cp_fm_geeig                         20  7.0    0.001    0.001    0.809    0.810
 dbcsr_finalize                   11759 11.3    0.059    0.192    0.390    0.800
 make_images                       3154 12.3    0.213    0.222    0.755    0.782
 pw_poisson_set                     272 10.3    0.005    0.006    0.755    0.774
 Vh_1c_gg_integrals                 271  9.3    0.055    0.521    0.696    0.766
 fft_wrap_pw1pw2_30                 544 11.8    0.022    0.023    0.639    0.755
 dbcsr_sym_matrix_vector_mult      2975  7.0    0.048    0.051    0.697    0.737
 dbcsr_add_d                       4536  7.0    0.004    0.005    0.100    0.693
 dbcsr_add_anytype                 4536  8.0    0.007    0.049    0.096    0.688
 pw_poisson_rebuild                 271 10.3    0.000    0.000    0.654    0.669
 ps_wavelet_create                    1 10.0    0.000    0.000    0.653    0.669
 RS_z_slice_distribution              1 11.0    0.581    0.639    0.653    0.669
 pw_copy_from_array                2805 12.7    0.540    0.637    0.540    0.637
 hybrid_alltoall_any               4396 13.4    0.038    0.046    0.595    0.626
 parser_read_line                174213  4.0    0.058    0.065    0.607    0.617
 mp_sum_l                          6065 10.5    0.482    0.581    0.482    0.581
 scale_and_distribute               542 11.3    0.500    0.563    0.500    0.563
 parser_read_line_low               194  5.0    0.058    0.253    0.549    0.561
 pw_axpy                           2898 10.7    0.500    0.547    0.500    0.547
 broadcast_input_information        194  6.0    0.133    0.142    0.491    0.525
 pw_zero                           2892 10.6    0.452    0.509    0.452    0.509
 cp_fm_trace_a1b1t1_aa            16500  8.0    0.110    0.123    0.489    0.492
 update_ks_atom                     271  8.7    0.060    0.104    0.341    0.483
 offload_free_buffer                279 10.1    0.384    0.474    0.384    0.474
 calculate_dm_sparse                 91  6.0    0.001    0.001    0.460    0.474
 mp_max_i                           734  5.3    0.355    0.467    0.355    0.467
 integrate_four_center_load         451 10.8    0.002    0.003    0.334    0.436
 hfx_load_balance                     1 11.0    0.000    0.000    0.333    0.434
 dbcsr_merge_all                  10199 12.3    0.166    0.321    0.222    0.426
 fft_wrap_pw1pw2_10                 544 11.8    0.007    0.007    0.417    0.423
 mp_bcast_dm                       6504  9.7    0.280    0.404    0.280    0.404
 hfx_load_balance_range               1 12.0    0.000    0.000    0.296    0.397
 multiply_cannon_metrocomm3       25232 13.3    0.076    0.079    0.200    0.352
 dbcsr_col_vec_to_rep_row          2975  8.0    0.021    0.023    0.288    0.344
 mp_irecv_dv                     101640 13.5    0.124    0.343    0.124    0.343
 init_scf_run                         1  3.0    0.000    0.000    0.335    0.335
 make_images_sizes                 3154 13.3    0.004    0.004    0.280    0.320
 dbcsr_iterator_start             61591 10.3    0.178    0.272    0.196    0.318
 mp_alltoall_i44                   3154 14.3    0.277    0.317    0.277    0.317
 scf_env_initial_rho_setup            1  4.0    0.000    0.000    0.295    0.295
 mp_bcast_dv                       3118  9.0    0.199    0.294    0.199    0.294
 mp_cart_sub                       2485 11.3    0.278    0.279    0.278    0.279
 mp_alltoall_z11v                   544 14.8    0.268    0.275    0.268    0.275
 qs_init_subsys                       1  2.0    0.004    0.004    0.260    0.261
 tddfpt_construct_ground_state_       1  6.0    0.000    0.000    0.248    0.249
 qs_env_setup                         1  3.0    0.000    0.000    0.245    0.248
 qs_env_rebuild_pw_env                2  3.5    0.000    0.000    0.243    0.246
 pw_env_rebuild                       1  5.0    0.001    0.001    0.243    0.246
 mp_bcast_i_src                     776  7.0    0.166    0.243    0.166    0.243
 dbcsr_rep_row_to_rep_col_vec      2975  8.0    0.016    0.018    0.101    0.239
 mp_bcast_am_src                    194  7.0    0.171    0.195    0.185    0.226
 multiply_cannon_multrec          25232 13.3    0.118    0.206    0.125    0.214
 xc_2nd_deriv_of_r                  720 10.0    0.003    0.062    0.010    0.209
 multiply_cannon_metrocomm4       23655 13.3    0.073    0.079    0.170    0.209
 dbcsr_work_create                16172 12.2    0.081    0.129    0.125    0.208
 cp_fm_redistribute_start           143  8.2    0.144    0.157    0.180    0.208
 mp_cart_create                    2330 10.5    0.187    0.205    0.189    0.208
 dbcsr_create_new                 37372 10.8    0.154    0.165    0.193    0.204
 mp_rank_compare                   5525 14.0    0.186    0.191    0.186    0.191
 pw_grid_setup                        4  6.0    0.000    0.000    0.185    0.188
 pw_grid_setup_internal               4  7.0    0.005    0.007    0.185    0.188
 rs_scatter_matrices                273  9.6    0.004    0.006    0.163    0.172
 dbcsr_work_destroy_all           16172 13.1    0.070    0.113    0.104    0.170
 prepare_dr1dr                      900 11.2    0.141    0.166    0.141    0.166
 multiply_cannon_metrocomm1       25232 13.3    0.040    0.042    0.071    0.164
 make_images_data                  3154 13.3    0.036    0.048    0.101    0.160
 dbcsr_iterator_stop              61591 10.3    0.100    0.141    0.113    0.157
 yz_to_xz                           271 14.0    0.008    0.009    0.149    0.153
 dbcsr_copy                       15806  8.3    0.081    0.093    0.130    0.145
 multiply_cannon_metrocomm2       22078 13.3    0.068    0.072    0.124    0.139
 dbcsr_data_new                  202600 12.4    0.099    0.137    0.099    0.137
 xz_to_yz                           273 13.6    0.006    0.007    0.133    0.136
 tddfpt_compute_ritz_vects            9  7.0    0.004    0.004    0.133    0.133
 copy_fm_to_dbcsr_bc               2569 10.5    0.039    0.043    0.123    0.133
 mp_allgather_i34                  1577 12.3    0.089    0.131    0.089    0.131
 pw_grid_sort                         4  8.0    0.076    0.078    0.112    0.116
 dbcsr_data_release              282721 12.4    0.079    0.112    0.079    0.112
 create_kernel_env                    1  6.0    0.000    0.000    0.093    0.109
 xc_prep_2nd_deriv                    1  7.0    0.000    0.000    0.093    0.108
 cp_fm_symm                          91  7.0    0.099    0.105    0.099    0.105
 tddfpt_orthogonalize_psi1_psi0      10  6.9    0.000    0.000    0.095    0.104
 dbcsr_special_finalize            4731 13.3    0.021    0.023    0.062    0.086
 rs_grid_create                     277 10.2    0.001    0.001    0.011    0.078
 offload_create_buffer              279 11.2    0.010    0.077    0.010    0.077
 pw_scale                           724  9.5    0.054    0.074    0.054    0.074
 dbcsr_make_images_dense            902 11.6    0.010    0.011    0.032    0.071
 dbcsr_destroy                    31335 10.5    0.042    0.045    0.064    0.070
 cp_fm_write_unformatted             25  7.0    0.039    0.049    0.042    0.068
 mixing_init                          1  5.0    0.062    0.064    0.064    0.065
 cp_fm_triangular_multiply           60  8.0    0.063    0.064    0.063    0.064
 dbcsr_sym_matrix_vector_mult_l    2975  8.0    0.025    0.027    0.060    0.063
 dbcsr_scale_anytype               4538  9.0    0.011    0.012    0.055    0.063
 tree_to_linear_d                  3812 13.4    0.034    0.060    0.034    0.060
 scf_post_calculation_gpw             1  3.0    0.000    0.000    0.058    0.059
 write_available_results              1  4.0    0.000    0.000    0.058    0.059
 write_mo_free_results                1  5.0    0.005    0.006    0.058    0.058
 dbcsr_make_untransposed_blocks    2568 11.3    0.021    0.023    0.053    0.057
 tddfpt_is_nonorthogonal_psi1_p       8  7.0    0.000    0.000    0.056    0.056
 create_fast_col_vec_access        5950  8.0    0.036    0.042    0.049    0.055
 create_fast_row_vec_access        5950  8.0    0.036    0.042    0.049    0.055
 cp_fm_cholesky_decompose            21  8.0    0.054    0.054    0.054    0.054
 dbcsr_add_wm_from_matrix           991 11.4    0.008    0.010    0.045    0.054
 write_mo_set_to_restart             91  5.0    0.002    0.021    0.025    0.054
 dbcsr_make_dense_low              1353 12.6    0.007    0.008    0.015    0.053
 vxc_of_r_new                       364  9.0    0.001    0.017    0.002    0.052
 compute_max_radius                   1  6.0    0.050    0.052    0.050    0.052
 cp_fm_triangular_invert             20  8.0    0.050    0.051    0.050    0.051
 write_mo_set_low                     5  6.0    0.000    0.000    0.023    0.049
 dbcsr_merge_single_wm             3154 14.3    0.022    0.028    0.026    0.048
 mp_isend_iv                      54744 14.3    0.039    0.048    0.039    0.048
 dbcsr_iterator_seek              61591 11.3    0.018    0.046    0.018    0.046
 cp_fm_power                          1  6.0    0.000    0.000    0.046    0.046
 hfx_create                           1  2.0    0.040    0.041    0.041    0.043
 make_dense_data                   1353 13.6    0.002    0.011    0.005    0.043
 mp_cart_rank                    138896 10.8    0.039    0.043    0.039    0.043
 tddfpt_init_mos                      1  5.0    0.000    0.000    0.041    0.041
 tddfpt_init_ground_state_mos         1  6.0    0.000    0.000    0.041    0.041
 sort_shells                          4  9.0    0.036    0.039    0.036    0.039
 make_images_pack                  3154 13.3    0.006    0.007    0.036    0.039
 cube_transpose_2                   273 13.6    0.005    0.006    0.030    0.037
 mp_bcast_iv                        211  7.5    0.015    0.035    0.015    0.035
 dbcsr_crop_matrix                  273 10.0    0.000    0.001    0.030    0.034
 eigensolver                          1  7.0    0.000    0.000    0.034    0.034
 merge_index                      10199 13.3    0.014    0.033    0.014    0.033
 dbcsr_copy_submatrix               273 11.0    0.003    0.003    0.030    0.033
 -------------------------------------------------------------------------------

 The number of warnings for this run is : 2
 
 -------------------------------------------------------------------------------
  **** **** ******  **  PROGRAM ENDED AT                 2025-04-14 09:02:00.769
 ***** ** ***  *** **   PROGRAM RAN ON                              i03r01c04s06
 **    ****   ******    PROGRAM RAN BY                                   di38fab
 ***** **    ** ** **   PROGRAM PROCESS ID                               1815293
  **** **  *******  **  PROGRAM STOPPED IN /hppfs/scratch/04/di38fab/05_MOL/aUKB
                                           qsEOTmq69kFe5R_nOg/5k_set_final_qzvp/
                                           WAFYIL/aug-cc-pVDZ/TDDFT
