 DBCSR| CPU Multiplication driver                                           XSMM (U)
 DBCSR| Multrec recursion limit                                              512 (U)
 DBCSR| Multiplication stack size                                           1000 (D)
 DBCSR| Maximum elements for images                                    UNLIMITED (U)
 DBCSR| Multiplicative factor virtual images                                   1 (U)
 DBCSR| Use multiplication densification                                       T (D)
 DBCSR| Multiplication size stacks                                             3 (U)
 DBCSR| Use memory pool for CPU allocation                                     F (U)
 DBCSR| Number of 3D layers                                               SINGLE (U)
 DBCSR| Use MPI memory allocation                                              F (U)
 DBCSR| Use RMA algorithm                                                      F (U)
 DBCSR| Use Communication thread                                               T (U)
 DBCSR| Communication thread load                                             75 (D)
 DBCSR| MPI: My process id                                                     0
 DBCSR| MPI: Number of processes                                             256
 DBCSR| OMP: Current number of threads                                         4
 DBCSR| OMP: Max number of threads                                             4
 DBCSR| Split modifier for TAS multiplication algorithm                  1.0E+00 (U)


  **** **** ******  **  PROGRAM STARTED AT               2025-06-04 18:38:50.806
 ***** ** ***  *** **   PROGRAM STARTED ON                              n2cn0333
 **    ****   ******    PROGRAM STARTED BY                              metdyn02
 ***** **    ** ** **   PROGRAM PROCESS ID                                635945
  **** **  *******  **  PROGRAM STARTED IN /scratch/hpc-prf-metdyn/metdyn02_Remi
                                           /10_MOL/05_MOL/W4-11+ALK/cl2/SZVSR/TD
                                           DFT/RILIM

 CP2K| version string:                 CP2K version 2025.1 (Development Version)
 CP2K| source code revision number:                                  git:32ddf85
 CP2K| cp2kflags: omp libint fftw3 libxc libgrpp elpa parallel scalapack mpi_f08
 CP2K|             cosma xsmm plumed2 spglib libvori libbqb libvdwxc hdf5
 CP2K| is freely available from                            https://www.cp2k.org/
 CP2K| Program compiled at                         Mon May 19 11:32:37 CEST 2025
 CP2K| Program compiled on                                              n2login1
 CP2K| Program compiled for                                                local
 CP2K| Data directory path    /opt/software/pc2/EB-SW/software/CP2K/2024.1-foss-
 CP2K| Input file name                                                    GW.inp

 GLOBAL| Force Environment number                                              1
 GLOBAL| Basis set file name            /scratch/hpc-prf-metdyn/metdyn02_Remi/BA
 GLOBAL| Potential file name            /pc2/groups/hpc-prf-metdyn/metdyn02_Remi
 GLOBAL| MM Potential file name                                     MM_POTENTIAL
 GLOBAL| Coordinate file name                                      __STD_INPUT__
 GLOBAL| Method name                                                        CP2K
 GLOBAL| Project name                                                       MoS2
 GLOBAL| Run type                                                         ENERGY
 GLOBAL| FFT library                                                       FFTW3
 GLOBAL| Diagonalization library                                            ELPA
 GLOBAL| Cholesky decomposition library                                ScaLAPACK
 GLOBAL| DGEMM library                                                      BLAS
 GLOBAL| Minimum number of eigenvectors for ELPA usage                        16
 GLOBAL| Orthonormality check for eigenvectors                          DISABLED
 GLOBAL| Matrix multiplication library                                     COSMA
 GLOBAL| All-to-all communication in single precision                          F
 GLOBAL| FFTs using library dependent lengths                                  F
 GLOBAL| Grid backend                                                       AUTO
 GLOBAL| Global print level                                               MEDIUM
 GLOBAL| MPI I/O enabled                                                       T
 GLOBAL| Total number of message passing processes                           256
 GLOBAL| Number of threads for this process                                    4
 GLOBAL| This output is from process                                           0
 GLOBAL| OpenMP stack size per thread (OMP_STACKSIZE)                    default
 GLOBAL| CPU model name                          AMD EPYC 7763 64-Core Processor
 GLOBAL| CPUID                                                              1002

 MEMORY| system memory details [Kb]
 MEMORY|                        rank 0           min           max       average
 MEMORY| MemTotal            263897576     263897560     263897612     263897587
 MEMORY| MemFree             242604100     238726752     244108408     241640892
 MEMORY| Buffers                 29168         27968        128572         49122
 MEMORY| Cached               10951392       9392420      14352408      11653884
 MEMORY| Slab                  1697492       1582748       2298508       1881667
 MEMORY| SReclaimable           329876        238560        836596        444474
 MEMORY| MemLikelyFree       253914536     253526572     254062000     253788372


 *** Fundamental physical constants (SI units) ***

 *** Literature: B. J. Mohr and B. N. Taylor,
 ***             CODATA recommended values of the fundamental physical
 ***             constants: 2006, Web Version 5.1
 ***             http://physics.nist.gov/constants

 Speed of light in vacuum [m/s]                             2.99792458000000E+08
 Magnetic constant or permeability of vacuum [N/A**2]       1.25663706143592E-06
 Electric constant or permittivity of vacuum [F/m]          8.85418781762039E-12
 Planck constant (h) [J*s]                                  6.62606896000000E-34
 Planck constant (h-bar) [J*s]                              1.05457162825177E-34
 Elementary charge [C]                                      1.60217648700000E-19
 Electron mass [kg]                                         9.10938215000000E-31
 Electron g factor [ ]                                     -2.00231930436220E+00
 Proton mass [kg]                                           1.67262163700000E-27
 Fine-structure constant                                    7.29735253760000E-03
 Rydberg constant [1/m]                                     1.09737315685270E+07
 Avogadro constant [1/mol]                                  6.02214179000000E+23
 Boltzmann constant [J/K]                                   1.38065040000000E-23
 Atomic mass unit [kg]                                      1.66053878200000E-27
 Bohr radius [m]                                            5.29177208590000E-11

 *** Conversion factors ***

 [u] -> [a.u.]                                              1.82288848426455E+03
 [Angstrom] -> [Bohr] = [a.u.]                              1.88972613288564E+00
 [a.u.] = [Bohr] -> [Angstrom]                              5.29177208590000E-01
 [a.u.] -> [s]                                              2.41888432650478E-17
 [a.u.] -> [fs]                                             2.41888432650478E-02
 [a.u.] -> [J]                                              4.35974393937059E-18
 [a.u.] -> [N]                                              8.23872205491840E-08
 [a.u.] -> [K]                                              3.15774647902944E+05
 [a.u.] -> [kJ/mol]                                         2.62549961709828E+03
 [a.u.] -> [kcal/mol]                                       6.27509468713739E+02
 [a.u.] -> [Pa]                                             2.94210107994716E+13
 [a.u.] -> [bar]                                            2.94210107994716E+08
 [a.u.] -> [atm]                                            2.90362800883016E+08
 [a.u.] -> [eV]                                             2.72113838565563E+01
 [a.u.] -> [Hz]                                             6.57968392072181E+15
 [a.u.] -> [1/cm] (wave numbers)                            2.19474631370540E+05
 [a.u./Bohr**2] -> [1/cm]                                   5.14048714338585E+03
 

 CELL_TOP| Volume [angstrom^3]:                                     27000.000000
 CELL_TOP| Vector a [angstrom    30.000     0.000     0.000   |a| =    30.000000
 CELL_TOP| Vector b [angstrom     0.000    30.000     0.000   |b| =    30.000000
 CELL_TOP| Vector c [angstrom     0.000     0.000    30.000   |c| =    30.000000
 CELL_TOP| Angle (b,c), alpha [degree]:                                90.000000
 CELL_TOP| Angle (a,c), beta  [degree]:                                90.000000
 CELL_TOP| Angle (a,b), gamma [degree]:                                90.000000
 CELL_TOP| Numerically orthorhombic:                                         YES
 CELL_TOP| Periodicity                                                      NONE

 GENERATE|  Preliminary Number of Bonds generated:                             0
 GENERATE|  Achieved consistency in connectivity generation.

 CELL| Volume [angstrom^3]:                                         27000.000000
 CELL| Vector a [angstrom]:      30.000     0.000     0.000   |a| =    30.000000
 CELL| Vector b [angstrom]:       0.000    30.000     0.000   |b| =    30.000000
 CELL| Vector c [angstrom]:       0.000     0.000    30.000   |c| =    30.000000
 CELL| Angle (b,c), alpha [degree]:                                    90.000000
 CELL| Angle (a,c), beta  [degree]:                                    90.000000
 CELL| Angle (a,b), gamma [degree]:                                    90.000000
 CELL| Numerically orthorhombic:                                             YES
 CELL| Periodicity                                                          NONE

 CELL_REF| Volume [angstrom^3]:                                     27000.000000
 CELL_REF| Vector a [angstrom    30.000     0.000     0.000   |a| =    30.000000
 CELL_REF| Vector b [angstrom     0.000    30.000     0.000   |b| =    30.000000
 CELL_REF| Vector c [angstrom     0.000     0.000    30.000   |c| =    30.000000
 CELL_REF| Angle (b,c), alpha [degree]:                                90.000000
 CELL_REF| Angle (a,c), beta  [degree]:                                90.000000
 CELL_REF| Angle (a,b), gamma [degree]:                                90.000000
 CELL_REF| Numerically orthorhombic:                                         YES
 CELL_REF| Periodicity                                                      NONE

 *******************************************************************************
 *******************************************************************************
 **                                                                           **
 **     #####                         ##              ##                      **
 **    ##   ##            ##          ##              ##                      **
 **   ##     ##                       ##            ######                    **
 **   ##     ##  ##   ##  ##   #####  ##  ##   ####   ##    #####    #####    **
 **   ##     ##  ##   ##  ##  ##      ## ##   ##      ##   ##   ##  ##   ##   **
 **   ##  ## ##  ##   ##  ##  ##      ####     ###    ##   ######   ######    **
 **    ##  ###   ##   ##  ##  ##      ## ##      ##   ##   ##       ##        **
 **     #######   #####   ##   #####  ##  ##  ####    ##    #####   ##        **
 **           ##                                                    ##        **
 **                                                                           **
 **                                                ... make the atoms dance   **
 **                                                                           **
 **            Copyright (C) by CP2K developers group (2000-2025)             **
 **                      J. Chem. Phys. 152, 194103 (2020)                    **
 **                                                                           **
 *******************************************************************************

 DFT| Spin restricted Kohn-Sham (RKS) calculation                            RKS
 DFT| Multiplicity                                                             1
 DFT| Number of spin states                                                    1
 DFT| Charge                                                                   0
 DFT| Self-interaction correction (SIC)                                       NO
 DFT| Cutoffs: density                                              1.000000E-10
 DFT|          gradient                                             1.000000E-10
 DFT|          tau                                                  1.000000E-10
 DFT|          cutoff_smoothing_range                               0.000000E+00
 DFT| XC density smoothing                                                  NONE
 DFT| XC derivatives                                                          PW

 FUNCTIONAL| PBE:
 FUNCTIONAL| J.P.Perdew, K.Burke, M.Ernzerhof, Phys. Rev. Letter, vol. 77, n 18,
 FUNCTIONAL|  pp. 3865-3868, (1996)sx=0.750sc=1.000{spin unpolarized}           


 QS| Method:                                                                GAPW
 QS| Density plane wave grid type                        NON-SPHERICAL FULLSPACE
 QS| Number of grid levels:                                                    4
 QS| Density cutoff [a.u.]:                                                250.0
 QS| Multi grid cutoff [a.u.]: 1) grid level                               250.0
 QS|                           2) grid level                                83.3
 QS|                           3) grid level                                27.8
 QS|                           4) grid level                                 9.3
 QS| Grid level progression factor:                                          3.0
 QS| Relative density cutoff [a.u.]:                                        50.0
 QS| Interaction thresholds: eps_pgf_orb:                                1.0E-12
 QS|                         eps_filter_matrix:                          0.0E+00
 QS|                         eps_core_charge:                            1.0E-14
 QS|                         eps_rho_gspace:                             1.0E-12
 QS|                         eps_rho_rspace:                             1.0E-12
 QS|                         eps_gvg_rspace:                             1.0E-06
 QS|                         eps_ppl:                                    1.0E-02
 QS|                         eps_ppnl:                                   1.0E-08
 QS| GAPW|      One center basis from orbital basis primitives
 QS| GAPW|                   eps_fit:                                    1.0E-04
 QS| GAPW|                   eps_iso:                                    1.0E-12
 QS| GAPW|                   eps_svd:                                    1.0E-08
 QS| GAPW|                   eps_cpc:                                    1.0E-12
 QS| GAPW|   atom-r-grid: quadrature:                                     GC_LOG
 QS| GAPW|      atom-s-grid:  max l :                                          4
 QS| GAPW|      max_l_rho0 :                                                   2


 ATOMIC KIND INFORMATION

  1. Atomic kind: CL                                    Number of atoms:       2

     Orbital Basis Set                                         aug-SZV-MOLOPT-ae

       Number of orbital shell sets:                                           3
       Number of orbital shells:                                               8
       Number of primitive Cartesian functions:                               19
       Number of Cartesian basis functions:                                   19
       Number of spherical basis functions:                                   18
       Norm type:                                                              2

       Normalised Cartesian orbitals:

                        Set   Shell   Orbital            Exponent    Coefficient

                          1       1    1s                0.077000       0.000000
                                                         0.155732       0.048775
                                                         0.302177       0.213641
                                                         0.610646       0.074372
                                                         1.364210      -0.160589
                                                         3.637791      -0.133295
                                                        13.583529      -0.040055

                          1       2    2s                0.077000       0.113098
                                                         0.155732      -0.001418
                                                         0.302177      -0.032953
                                                         0.610646       0.000940
                                                         1.364210      -0.000650
                                                         3.637791      -0.006480
                                                        13.583529       0.000000

                          1       3    2px               0.077000       0.000000
                                                         0.155732       0.014765
                                                         0.302177       0.156150
                                                         0.610646       0.318942
                                                         1.364210       0.160173
                                                         3.637791      -0.130999
                                                        13.583529      -0.265378
                          1       3    2py               0.077000       0.000000
                                                         0.155732       0.014765
                                                         0.302177       0.156150
                                                         0.610646       0.318942
                                                         1.364210       0.160173
                                                         3.637791      -0.130999
                                                        13.583529      -0.265378
                          1       3    2pz               0.077000       0.000000
                                                         0.155732       0.014765
                                                         0.302177       0.156150
                                                         0.610646       0.318942
                                                         1.364210       0.160173
                                                         3.637791      -0.130999
                                                        13.583529      -0.265378

                          1       4    3px               0.077000       0.044533
                                                         0.155732       0.031887
                                                         0.302177       0.011087
                                                         0.610646      -0.025806
                                                         1.364210       0.119111
                                                         3.637791       0.324938
                                                        13.583529       0.000000
                          1       4    3py               0.077000       0.044533
                                                         0.155732       0.031887
                                                         0.302177       0.011087
                                                         0.610646      -0.025806
                                                         1.364210       0.119111
                                                         3.637791       0.324938
                                                        13.583529       0.000000
                          1       4    3pz               0.077000       0.044533
                                                         0.155732       0.031887
                                                         0.302177       0.011087
                                                         0.610646      -0.025806
                                                         1.364210       0.119111
                                                         3.637791       0.324938
                                                        13.583529       0.000000

                          1       5    3dx2              0.077000       0.003672
                                                         0.155732       0.001893
                                                         0.302177       0.117944
                                                         0.610646       0.097225
                                                         1.364210       0.782555
                                                         3.637791       0.872236
                                                        13.583529       0.000000
                          1       5    3dxy              0.077000       0.006359
                                                         0.155732       0.003279
                                                         0.302177       0.204285
                                                         0.610646       0.168398
                                                         1.364210       1.355425
                                                         3.637791       1.510758
                                                        13.583529       0.000000
                          1       5    3dxz              0.077000       0.006359
                                                         0.155732       0.003279
                                                         0.302177       0.204285
                                                         0.610646       0.168398
                                                         1.364210       1.355425
                                                         3.637791       1.510758
                                                        13.583529       0.000000
                          1       5    3dy2              0.077000       0.003672
                                                         0.155732       0.001893
                                                         0.302177       0.117944
                                                         0.610646       0.097225
                                                         1.364210       0.782555
                                                         3.637791       0.872236
                                                        13.583529       0.000000
                          1       5    3dyz              0.077000       0.006359
                                                         0.155732       0.003279
                                                         0.302177       0.204285
                                                         0.610646       0.168398
                                                         1.364210       1.355425
                                                         3.637791       1.510758
                                                        13.583529       0.000000
                          1       5    3dz2              0.077000       0.003672
                                                         0.155732       0.001893
                                                         0.302177       0.117944
                                                         0.610646       0.097225
                                                         1.364210       0.782555
                                                         3.637791       0.872236
                                                        13.583529       0.000000

                          2       1    1s              403.972966      -0.851102
                                                        79.956793      -0.895515
                                                        24.850512      -0.268003
                                                         9.560888       0.969714
                                                         4.152300       1.233756
                                                         1.903303       0.277989

                          2       2    2px             403.972966       9.705843
                                                        79.956793      12.841416
                                                        24.850512      13.753103
                                                         9.560888      10.017907
                                                         4.152300       3.598052
                                                         1.903303       0.324102
                          2       2    2py             403.972966       9.705843
                                                        79.956793      12.841416
                                                        24.850512      13.753103
                                                         9.560888      10.017907
                                                         4.152300       3.598052
                                                         1.903303       0.324102
                          2       2    2pz             403.972966       9.705843
                                                        79.956793      12.841416
                                                        24.850512      13.753103
                                                         9.560888      10.017907
                                                         4.152300       3.598052
                                                         1.903303       0.324102

                          3       1    1s             6236.545525       4.583362
                                                      1143.463795       6.917755
                                                       319.899964       9.085929
                                                       109.894271       8.964028
                                                        42.675161       4.956187
                                                        17.575988       0.797366

     RI Auxiliary Basis Set             RI_aug-SZV-MOLOPT-ae_N_RI_112_s_p_d_f_g_

       Number of orbital shell sets:                                          24
       Number of orbital shells:                                              24
       Number of primitive Cartesian functions:                               24
       Number of Cartesian basis functions:                                  167
       Number of spherical basis functions:                                  112
       Norm type:                                                              2

       Normalised Cartesian orbitals:

                        Set   Shell   Orbital            Exponent    Coefficient

                          1       1   20gx4              0.279015       0.033259
                          1       1   20gx3y             0.279015       0.087996
                          1       1   20gx3z             0.279015       0.087996
                          1       1   20gx2y2            0.279015       0.113602
                          1       1   20gx2yz            0.279015       0.196764
                          1       1   20gx2z2            0.279015       0.113602
                          1       1   20gxy3             0.279015       0.087996
                          1       1   20gxy2z            0.279015       0.196764
                          1       1   20gxyz2            0.279015       0.196764
                          1       1   20gxz3             0.279015       0.087996
                          1       1   20gy4              0.279015       0.033259
                          1       1   20gy3z             0.279015       0.087996
                          1       1   20gy2z2            0.279015       0.113602
                          1       1   20gyz3             0.279015       0.087996
                          1       1   20gz4              0.279015       0.033259

                          2       1    8px               0.330765       0.357552
                          2       1    8py               0.330765       0.357552
                          2       1    8pz               0.330765       0.357552

                          3       1    1s                0.339703       0.317128

                          4       1   14dx2              0.562661       0.601646
                          4       1   14dxy              0.562661       1.042081
                          4       1   14dxz              0.562661       1.042081
                          4       1   14dy2              0.562661       0.601646
                          4       1   14dyz              0.562661       1.042081
                          4       1   14dz2              0.562661       0.601646

                          5       1   17fx3              0.671109       0.600120
                          5       1   17fx2y             0.671109       1.341909
                          5       1   17fx2z             0.671109       1.341909
                          5       1   17fxy2             0.671109       1.341909
                          5       1   17fxyz             0.671109       2.324255
                          5       1   17fxz2             0.671109       1.341909
                          5       1   17fy3              0.671109       0.600120
                          5       1   17fy2z             0.671109       1.341909
                          5       1   17fyz2             0.671109       1.341909
                          5       1   17fz3              0.671109       0.600120

                          6       1    2s                0.711571       0.552172

                          7       1    9px               0.728662       0.959616
                          7       1    9py               0.728662       0.959616
                          7       1    9pz               0.728662       0.959616

                          8       1   21gx4              1.066208       1.327398
                          8       1   21gx3y             1.066208       3.511964
                          8       1   21gx3z             1.066208       3.511964
                          8       1   21gx2y2            1.066208       4.533926
                          8       1   21gx2yz            1.066208       7.852990
                          8       1   21gx2z2            1.066208       4.533926
                          8       1   21gxy3             1.066208       3.511964
                          8       1   21gxy2z            1.066208       7.852990
                          8       1   21gxyz2            1.066208       7.852990
                          8       1   21gxz3             1.066208       3.511964
                          8       1   21gy4              1.066208       1.327398
                          8       1   21gy3z             1.066208       3.511964
                          8       1   21gy2z2            1.066208       4.533926
                          8       1   21gyz3             1.066208       3.511964
                          8       1   21gz4              1.066208       1.327398

                          9       1   15dx2              1.149113       2.099155
                          9       1   15dxy              1.149113       3.635843
                          9       1   15dxz              1.149113       3.635843
                          9       1   15dy2              1.149113       2.099155
                          9       1   15dyz              1.149113       3.635843
                          9       1   15dz2              1.149113       2.099155

                         10       1   18fx3              1.633659       4.441887
                         10       1   18fx2y             1.633659       9.932362
                         10       1   18fx2z             1.633659       9.932362
                         10       1   18fxy2             1.633659       9.932362
                         10       1   18fxyz             1.633659      17.203356
                         10       1   18fxz2             1.633659       9.932362
                         10       1   18fy3              1.633659       4.441887
                         10       1   18fy2z             1.633659       9.932362
                         10       1   18fyz2             1.633659       9.932362
                         10       1   18fz3              1.633659       4.441887

                         11       1   23hx5              1.666224       3.899222
                         11       1   23hx4y             1.666224      11.697667
                         11       1   23hx4z             1.666224      11.697667
                         11       1   23hx3y2            1.666224      17.868481
                         11       1   23hx3yz            1.666224      30.949117
                         11       1   23hx3z2            1.666224      17.868481
                         11       1   23hx2y3            1.666224      17.868481
                         11       1   23hx2y2z           1.666224      39.955139
                         11       1   23hx2yz2           1.666224      39.955139
                         11       1   23hx2z3            1.666224      17.868481
                         11       1   23hxy4             1.666224      11.697667
                         11       1   23hxy3z            1.666224      30.949117
                         11       1   23hxy2z2           1.666224      39.955139
                         11       1   23hxyz3            1.666224      30.949117
                         11       1   23hxz4             1.666224      11.697667
                         11       1   23hy5              1.666224       3.899222
                         11       1   23hy4z             1.666224      11.697667
                         11       1   23hy3z2            1.666224      17.868481
                         11       1   23hy2z3            1.666224      17.868481
                         11       1   23hyz4             1.666224      11.697667
                         11       1   23hz5              1.666224       3.899222

                         12       1   24ix6              1.924248       5.207825
                         12       1   24ix5y             1.924248      17.272401
                         12       1   24ix5z             1.924248      17.272401
                         12       1   24ix4y2            1.924248      29.916676
                         12       1   24ix4yz            1.924248      51.817204
                         12       1   24ix4z2            1.924248      29.916676
                         12       1   24ix3y3            1.924248      35.397889
                         12       1   24ix3y2z           1.924248      79.152086
                         12       1   24ix3yz2           1.924248      79.152086
                         12       1   24ix3z3            1.924248      35.397889
                         12       1   24ix2y4            1.924248      29.916676
                         12       1   24ix2y3z           1.924248      79.152086
                         12       1   24ix2y2z2          1.924248     102.184904
                         12       1   24ix2yz3           1.924248      79.152086
                         12       1   24ix2z4            1.924248      29.916676
                         12       1   24ixy5             1.924248      17.272401
                         12       1   24ixy4z            1.924248      51.817204
                         12       1   24ixy3z2           1.924248      79.152086
                         12       1   24ixy2z3           1.924248      79.152086
                         12       1   24ixyz4            1.924248      51.817204
                         12       1   24ixz5             1.924248      17.272401
                         12       1   24iy6              1.924248       5.207825
                         12       1   24iy5z             1.924248      17.272401
                         12       1   24iy4z2            1.924248      29.916676
                         12       1   24iy3z3            1.924248      35.397889
                         12       1   24iy2z4            1.924248      29.916676
                         12       1   24iyz5             1.924248      17.272401
                         12       1   24iz6              1.924248       5.207825

                         13       1   22gx4              2.220982       9.986982
                         13       1   22gx3y             2.220982      26.423072
                         13       1   22gx3z             2.220982      26.423072
                         13       1   22gx2y2            2.220982      34.112039
                         13       1   22gx2yz            2.220982      59.083785
                         13       1   22gx2z2            2.220982      34.112039
                         13       1   22gxy3             2.220982      26.423072
                         13       1   22gxy2z            2.220982      59.083785
                         13       1   22gxyz2            2.220982      59.083785
                         13       1   22gxz3             2.220982      26.423072
                         13       1   22gy4              2.220982       9.986982
                         13       1   22gy3z             2.220982      26.423072
                         13       1   22gy2z2            2.220982      34.112039
                         13       1   22gyz3             2.220982      26.423072
                         13       1   22gz4              2.220982       9.986982

                         14       1    3s                2.450225       1.395772

                         15       1   10px               3.102999       5.870393
                         15       1   10py               3.102999       5.870393
                         15       1   10pz               3.102999       5.870393

                         16       1   19fx3              7.124016     122.063406
                         16       1   19fx2y             7.124016     272.942072
                         16       1   19fx2z             7.124016     272.942072
                         16       1   19fxy2             7.124016     272.942072
                         16       1   19fxyz             7.124016     472.749537
                         16       1   19fxz2             7.124016     272.942072
                         16       1   19fy3              7.124016     122.063406
                         16       1   19fy2z             7.124016     272.942072
                         16       1   19fyz2             7.124016     272.942072
                         16       1   19fz3              7.124016     122.063406

                         17       1    4s                8.846809       3.655948

                         18       1   11px              11.089446      28.845456
                         18       1   11py              11.089446      28.845456
                         18       1   11pz              11.089446      28.845456

                         19       1   16dx2             26.850040     521.270449
                         19       1   16dxy             26.850040     902.866903
                         19       1   16dxz             26.850040     902.866903
                         19       1   16dy2             26.850040     521.270449
                         19       1   16dyz             26.850040     902.866903
                         19       1   16dz2             26.850040     521.270449

                         20       1    5s               32.149471       9.622556

                         21       1   12px              38.748652     137.803687
                         21       1   12py              38.748652     137.803687
                         21       1   12pz              38.748652     137.803687

                         22       1    6s              116.893242      25.336822

                         23       1   13px             135.032822     656.129050
                         23       1   13py             135.032822     656.129050
                         23       1   13pz             135.032822     656.129050

                         24       1    7s              425.072226      66.720169

       Atomic covalent radius [Angstrom]:                                  0.990

       Atomic van der Waals radius [Angstrom]:                             1.750

     The atoms of this atomic kind are PAW atoms (GAPW):
       Hard Gaussian function radius:                                      1.512
       Rho0 radius:                                                        1.512
       Maximum GTO radius used for PAW projector construction:            24.566

     GAPW Soft Basis Set                                  aug-SZV-MOLOPT-ae_soft

       Number of orbital shell sets:                                           3
       Number of orbital shells:                                               8
       Number of primitive Cartesian functions:                                8
       Number of Cartesian basis functions:                                   19
       Number of spherical basis functions:                                   18
       Norm type:                                                              2

       Normalised Cartesian orbitals:

                        Set   Shell   Orbital            Exponent    Coefficient

                          1       1    1s                0.077000       0.000000
                                                         0.155732       0.048775
                                                         0.302177       0.213641
                                                         0.610646       0.074372
                                                         1.364210      -0.160589
                                                         3.637791      -0.133295

                          1       2    2s                0.077000       0.113098
                                                         0.155732      -0.001418
                                                         0.302177      -0.032953
                                                         0.610646       0.000940
                                                         1.364210      -0.000650
                                                         3.637791      -0.006480

                          1       3    2px               0.077000       0.000000
                                                         0.155732       0.014765
                                                         0.302177       0.156150
                                                         0.610646       0.318942
                                                         1.364210       0.160173
                                                         3.637791      -0.130999
                          1       3    2py               0.077000       0.000000
                                                         0.155732       0.014765
                                                         0.302177       0.156150
                                                         0.610646       0.318942
                                                         1.364210       0.160173
                                                         3.637791      -0.130999
                          1       3    2pz               0.077000       0.000000
                                                         0.155732       0.014765
                                                         0.302177       0.156150
                                                         0.610646       0.318942
                                                         1.364210       0.160173
                                                         3.637791      -0.130999

                          1       4    3px               0.077000       0.044533
                                                         0.155732       0.031887
                                                         0.302177       0.011087
                                                         0.610646      -0.025806
                                                         1.364210       0.119111
                                                         3.637791       0.324938
                          1       4    3py               0.077000       0.044533
                                                         0.155732       0.031887
                                                         0.302177       0.011087
                                                         0.610646      -0.025806
                                                         1.364210       0.119111
                                                         3.637791       0.324938
                          1       4    3pz               0.077000       0.044533
                                                         0.155732       0.031887
                                                         0.302177       0.011087
                                                         0.610646      -0.025806
                                                         1.364210       0.119111
                                                         3.637791       0.324938

                          1       5    3dx2              0.077000       0.003672
                                                         0.155732       0.001893
                                                         0.302177       0.117944
                                                         0.610646       0.097225
                                                         1.364210       0.782555
                                                         3.637791       0.872236
                          1       5    3dxy              0.077000       0.006359
                                                         0.155732       0.003279
                                                         0.302177       0.204285
                                                         0.610646       0.168398
                                                         1.364210       1.355425
                                                         3.637791       1.510758
                          1       5    3dxz              0.077000       0.006359
                                                         0.155732       0.003279
                                                         0.302177       0.204285
                                                         0.610646       0.168398
                                                         1.364210       1.355425
                                                         3.637791       1.510758
                          1       5    3dy2              0.077000       0.003672
                                                         0.155732       0.001893
                                                         0.302177       0.117944
                                                         0.610646       0.097225
                                                         1.364210       0.782555
                                                         3.637791       0.872236
                          1       5    3dyz              0.077000       0.006359
                                                         0.155732       0.003279
                                                         0.302177       0.204285
                                                         0.610646       0.168398
                                                         1.364210       1.355425
                                                         3.637791       1.510758
                          1       5    3dz2              0.077000       0.003672
                                                         0.155732       0.001893
                                                         0.302177       0.117944
                                                         0.610646       0.097225
                                                         1.364210       0.782555
                                                         3.637791       0.872236

                          2       1    1s                4.152300       0.000000
                                                         1.903303       0.277989

                          2       2    2px               4.152300       3.598052
                                                         1.903303       0.324102
                          2       2    2py               4.152300       3.598052
                                                         1.903303       0.324102
                          2       2    2pz               4.152300       3.598052
                                                         1.903303       0.324102

                          3       1    1s         

     AE Potential information for                                            ALL

       Description:                                       All-electron potential
                                          Krack, Parrinello, PCCP 2, 2105 (2000)

       Gaussian exponent of the core charge distribution:               2.974420
       Electronic configuration (s p d ...):                           6  11   0


 MOLECULE KIND INFORMATION


 All atoms are their own molecule, skipping detailed information


 TOTAL NUMBERS AND MAXIMUM NUMBERS

  Total number of            - Atomic kinds:                                   1
                             - Atoms:                                          2
                             - Shell sets:                                     6
                             - Shells:                                        16
                             - Primitive Cartesian functions:                 38
                             - Cartesian basis functions:                     38
                             - Spherical basis functions:                     36

  Maximum angular momentum of the orbital basis functions:                     2


 MODULE QUICKSTEP: ATOMIC COORDINATES IN ANGSTROM

   Atom Kind Element         X             Y             Z       Z(eff)     Mass
      1    1 CL   17     15.998288     15.000000     15.000000  17.0000  35.4530
      2    1 CL   17     14.001712     15.000000     15.000000  17.0000  35.4530



 SCF PARAMETERS         Density guess:                                   RESTART
                        --------------------------------------------------------
                        max_scf:                                             500
                        max_scf_history:                                       0
                        max_diis:                                              4
                        --------------------------------------------------------
                        eps_scf:                                        1.00E-06
                        eps_scf_history:                                0.00E+00
                        eps_diis:                                       0.00E+00
                        eps_eigval:                                     1.00E-05
                        --------------------------------------------------------
                        level_shift [a.u.]:                             0.000000
                        --------------------------------------------------------
                        Outer loop SCF in use 
                        No variables optimised in outer loop
                        eps_scf                                         1.00E-06
                        max_scf                                               20
                        No outer loop optimization
                        step_size                                       5.00E-01

 PW_GRID| Information for grid number                                          1
 PW_GRID| Grid distributed over                                   256 processors
 PW_GRID| Real space group dimensions                                   256    1
 PW_GRID| the grid is blocked:                                                NO
 PW_GRID| Cutoff [a.u.]                                                    250.0
 PW_GRID| spherical cutoff:                                                   NO
 PW_GRID|   Bounds   1           -202     202                Points:         405
 PW_GRID|   Bounds   2           -202     202                Points:         405
 PW_GRID|   Bounds   3           -202     202                Points:         405
 PW_GRID| Volume element (a.u.^3)  0.2743E-02     Volume (a.u.^3)    182205.0337
 PW_GRID| Grid span                                                    FULLSPACE
 PW_GRID|   Distribution                         Average         Max         Min
 PW_GRID|   G-Vectors                           259492.7      259605      259200
 PW_GRID|   G-Rays                                 640.7         641         640
 PW_GRID|   Real Space Points                   259492.7      328050      164025

 PW_GRID| Information for grid number                                          2
 PW_GRID| Number of the reference grid                                         1
 PW_GRID| Grid distributed over                                   256 processors
 PW_GRID| Real space group dimensions                                    16   16
 PW_GRID| the grid is blocked:                                                NO
 PW_GRID| Cutoff [a.u.]                                                     83.3
 PW_GRID| spherical cutoff:                                                   NO
 PW_GRID|   Bounds   1           -120     119                Points:         240
 PW_GRID|   Bounds   2           -120     119                Points:         240
 PW_GRID|   Bounds   3           -120     119                Points:         240
 PW_GRID| Volume element (a.u.^3)  0.1318E-01     Volume (a.u.^3)    182205.0337
 PW_GRID| Grid span                                                    FULLSPACE
 PW_GRID|   Distribution                         Average         Max         Min
 PW_GRID|   G-Vectors                            54000.0       54240       53760
 PW_GRID|   G-Rays                                 225.0         226         224
 PW_GRID|   Real Space Points                    54000.0       54000       54000

 PW_GRID| Information for grid number                                          3
 PW_GRID| Number of the reference grid                                         1
 PW_GRID| Grid distributed over                                   256 processors
 PW_GRID| Real space group dimensions                                    16   16
 PW_GRID| the grid is blocked:                                                NO
 PW_GRID| Cutoff [a.u.]                                                     27.8
 PW_GRID| spherical cutoff:                                                   NO
 PW_GRID|   Bounds   1            -67      67                Points:         135
 PW_GRID|   Bounds   2            -67      67                Points:         135
 PW_GRID|   Bounds   3            -67      67                Points:         135
 PW_GRID| Volume element (a.u.^3)  0.7406E-01     Volume (a.u.^3)    182205.0337
 PW_GRID| Grid span                                                    FULLSPACE
 PW_GRID|   Distribution                         Average         Max         Min
 PW_GRID|   G-Vectors                             9610.8        9990        9315
 PW_GRID|   G-Rays                                  71.2          74          69
 PW_GRID|   Real Space Points                     9610.8       10935        8640

 PW_GRID| Information for grid number                                          4
 PW_GRID| Number of the reference grid                                         1
 PW_GRID| Grid distributed over                                   256 processors
 PW_GRID| Real space group dimensions                                    16   16
 PW_GRID| the grid is blocked:                                                NO
 PW_GRID| Cutoff [a.u.]                                                      9.3
 PW_GRID| spherical cutoff:                                                   NO
 PW_GRID|   Bounds   1            -40      39                Points:          80
 PW_GRID|   Bounds   2            -40      39                Points:          80
 PW_GRID|   Bounds   3            -40      39                Points:          80
 PW_GRID| Volume element (a.u.^3)  0.3559         Volume (a.u.^3)    182205.0337
 PW_GRID| Grid span                                                    FULLSPACE
 PW_GRID|   Distribution                         Average         Max         Min
 PW_GRID|   G-Vectors                             2000.0        2080        1920
 PW_GRID|   G-Rays                                  25.0          26          24
 PW_GRID|   Real Space Points                     2000.0        2000        2000

 POISSON| Solver                                                         WAVELET
 POISSON| Wavelet| Scaling function                                           40
 POISSON| Periodicity                                                       NONE

 RS_GRID| Information for grid number                                          1
 RS_GRID|   Bounds   1           -202     202                Points:         405
 RS_GRID|   Bounds   2           -202     202                Points:         405
 RS_GRID|   Bounds   3           -202     202                Points:         405
 RS_GRID| Real space distribution over                                  4 groups
 RS_GRID| Real space distribution along direction                              1
 RS_GRID| Border size                                                         33
 RS_GRID| Real space distribution over                                  8 groups
 RS_GRID| Real space distribution along direction                              2
 RS_GRID| Border size                                                         33
 RS_GRID| Real space distribution over                                  8 groups
 RS_GRID| Real space distribution along direction                              3
 RS_GRID| Border size                                                         33
 RS_GRID|   Distribution                         Average         Max         Min
 RS_GRID|   Planes                                 167.2         168         167
 RS_GRID|   Distribution                         Average         Max         Min
 RS_GRID|   Planes                                 116.6         117         116
 RS_GRID|   Distribution                         Average         Max         Min
 RS_GRID|   Planes                                 116.6         117         116

 RS_GRID| Information for grid number                                          2
 RS_GRID|   Bounds   1           -120     119                Points:         240
 RS_GRID|   Bounds   2           -120     119                Points:         240
 RS_GRID|   Bounds   3           -120     119                Points:         240
 RS_GRID| Real space distribution over                                  4 groups
 RS_GRID| Real space distribution along direction                              1
 RS_GRID| Border size                                                         36
 RS_GRID| Real space distribution over                                  8 groups
 RS_GRID| Real space distribution along direction                              2
 RS_GRID| Border size                                                         36
 RS_GRID| Real space distribution over                                  8 groups
 RS_GRID| Real space distribution along direction                              3
 RS_GRID| Border size                                                         36
 RS_GRID|   Distribution                         Average         Max         Min
 RS_GRID|   Planes                                 132.0         132         132
 RS_GRID|   Distribution                         Average         Max         Min
 RS_GRID|   Planes                                 102.0         102         102
 RS_GRID|   Distribution                         Average         Max         Min
 RS_GRID|   Planes                                 102.0         102         102

 RS_GRID| Information for grid number                                          3
 RS_GRID|   Bounds   1            -67      67                Points:         135
 RS_GRID|   Bounds   2            -67      67                Points:         135
 RS_GRID|   Bounds   3            -67      67                Points:         135
 RS_GRID| Real space fully replicated
 RS_GRID| Group size                                                           1

 RS_GRID| Information for grid number                                          4
 RS_GRID|   Bounds   1            -40      39                Points:          80
 RS_GRID|   Bounds   2            -40      39                Points:          80
 RS_GRID|   Bounds   3            -40      39                Points:          80
 RS_GRID| Real space fully replicated
 RS_GRID| Group size                                                           1

  HFX_INFO| Replica ID:                                                        1
  HFX_INFO| FRACTION:                                               0.2500000000
  HFX_INFO| Interaction Potential:                                       COULOMB
  HFX_INFO| EPS_SCHWARZ:                                                 1.0E-10
  HFX_INFO| EPS_SCHWARZ_FORCES                                           1.0E-08
  HFX_INFO| EPS_STORAGE_SCALING:                                         1.0E+00
  HFX_INFO| NBINS:                                                            64
  HFX_INFO| BLOCK_SIZE:                                                        1
  HFX_INFO| Number of periodic shells considered:                           NONE
  HFX_INFO| Number of periodic cells considered:                            NONE


 OVERLAP MATRIX CONDITION NUMBER
 1-Norm Condition Number (Estimate)
   CN : |A|*|A^-1|:  3.889E+000 *  1.389E+002   = 5.402E+002  Log(1-CN):  2.7325
 1-Norm and 2-Norm Condition Numbers using Diagonalization
   CN : |A|*|A^-1|:  3.889E+000 *  1.389E+002   = 5.402E+002  Log(1-CN):  2.7325
   CN : max/min ev:  3.206E+000 /  9.520E-003   = 3.368E+002  Log(2-CN):  2.5273

 Number of electrons:                                                         34
 Number of occupied orbitals:                                                 17
 Number of molecular orbitals:                                                17

 Number of orbital functions:                                                 36
 Number of independent orbital functions:                                     36

 Extrapolation method: initial_guess

 *** WARNING in qs_mo_io.F:793 :: The number of MOs on the restart unit is ***
 *** greater than the number of the allocated MOs. The read MO set will be ***
 *** truncated!                                                            ***



 SCF WAVEFUNCTION OPTIMIZATION

  ----------------------------------- OT ---------------------------------------
  Minimizer      : CG                  : conjugate gradient
  Preconditioner : FULL_SINGLE_INVERSE : inversion of 
                                         H + eS - 2*(Sc)(c^T*H*c+const)(Sc)^T
  Precond_solver : DEFAULT
  Line search    : 3PNT                : 3 energies
  stepsize       :    0.08000000                  energy_gap     :    0.08000000
  eps_taylor     :   0.10000E-15                  max_taylor     :             4
  ----------------------------------- OT ---------------------------------------

  Step     Update method      Time    Convergence         Total energy    Change
  ------------------------------------------------------------------------------

  HFX_MEM_INFO| Est. max. program size before HFX [MiB]:                     614
  HFX_MEM_INFO| Number of cart. primitive ERI's calculated:            524086992
  HFX_MEM_INFO| Number of sph. ERI's calculated:                          628497
  HFX_MEM_INFO| Number of sph. ERI's stored in-core:                      628497
  HFX_MEM_INFO| Number of sph. ERI's stored on disk:                           0
  HFX_MEM_INFO| Number of sph. ERI's calculated on the fly:                    0
  HFX_MEM_INFO| Total memory consumption ERI's RAM [MiB]:                     11
  HFX_MEM_INFO| Whereof max-vals [MiB]:                                        8
  HFX_MEM_INFO| Total compression factor ERI's RAM:                         0.48
  HFX_MEM_INFO| Total memory consumption ERI's disk [MiB]:                     0
  HFX_MEM_INFO| Total compression factor ERI's disk:                        0.00
  HFX_MEM_INFO| Size of density/Fock matrix [MiB]:                             0
  HFX_MEM_INFO| Size of buffers [MiB]:                                         0
  HFX_MEM_INFO| Est. max. program size after HFX  [MiB]:                    1103

     1 OT CG       0.64E-01    3.1     0.00000028      -917.1080180992 -9.17E+02

  *** SCF run converged in     1 steps ***


  Electronic density on regular grids:        -17.4017444683       16.5982555317
  Core density on regular grids:               34.0000000000        0.0000000000
  Hard and soft densities (Lebedev):          -39.2658172365      -22.6675642187
  Total Rho_soft + Rho1_hard - Rho1_soft      -33.9999974861
  Total charge density (r-space):               0.0000025139
  Total Rho_soft + Rho0_soft (g-space):        -0.0000001693

  Overlap energy of the core charge distribution:               0.00000000586950
  Self energy of the core charge distribution:               -397.68485279341849
  Core Hamiltonian energy:                                   -527.89451956973676
  Hartree energy:                                              67.89512939505866
  Exchange-correlation energy:                                 -6.58890954066133
  Hartree-Fock Exchange energy:                               -13.76429230864064

  GAPW| Exc from hard and soft atomic rho1:                   -35.69532452038169
  GAPW| local Eh = 1 center integrals:                         -3.37524876732771

  Total energy:                                              -917.10801809923839

  outer SCF iter =    1 RMS gradient =   0.28E-06 energy =       -917.1080180992
  outer SCF loop converged in   1 iterations or    1 steps


 !-----------------------------------------------------------------------------!
                     Mulliken Population Analysis

 #  Atom  Element  Kind  Atomic population                           Net charge
       1     CL       1         17.000000                              0.000000
       2     CL       1         17.000000                             -0.000000
 # Total charge                             34.000000                 -0.000000

 !-----------------------------------------------------------------------------!

 !-----------------------------------------------------------------------------!
                           Hirshfeld Charges

  #Atom  Element  Kind  Ref Charge     Population                    Net charge
      1       CL     1      17.000         17.000                         0.000
      2       CL     1      17.000         17.000                         0.000

  Total Charge                                                            0.001
 !-----------------------------------------------------------------------------!

 *******************************************************************************
 **                                                                           **
 **         ######## #######   #######   ######## #######  ########           **
 **            ##    ##     ## ##     ## ##       ##   ##     ##              **
 **            ##    ##     ## ##     ## ######   #######     ##              **
 **            ##    ##     ## ##     ## ##       ##          ##              **
 **            ##    #######   #######   ##       ##          ##              **
 **                                                                           **
 *******************************************************************************
 KERNEL|                                                                    FULL
 FUNCTIONAL| PBE:
 FUNCTIONAL| J.P.Perdew, K.Burke, M.Ernzerhof, Phys. Rev. Letter, vol. 77, n 18,
 FUNCTIONAL|  pp. 3865-3868, (1996)sx=0.750sc=1.000{spin unpolarized}           
 KERNEL|                                                          Exact Exchange
 KERNEL| Spin symmetry of excitations                                    Singlet
 TDDFPT| Number of states calculated                                          20
 TDDFPT| Number of Davidson iterations                                       100
 TDDFPT| Davidson iteration convergence                                0.367E-07
 TDDFPT| Max. number of Krylov space vectors                                5000
 TDDFPT| Molecular Orbitals:        Spin       AOs       Occ      Virt     Total
 TDDFPT|                               1        36        17        19        36
 
 -------------------------------------------------------------------------------
 -                            TDDFPT Initial Guess                             -
 -------------------------------------------------------------------------------
          State         Occupied      ->      Virtual          Excitation
          number         orbital              orbital          energy (eV)
 -------------------------------------------------------------------------------
             1               17                   18              5.39161
             2               16                   18              5.39161
             3               15                   18              8.20495
             4               14                   18              8.20495
             5               13                   18             10.02714
             6               17                   19             11.83823
             7               16                   19             11.83823
             8               17                   20             14.02445
             9               16                   20             14.02445
            10               17                   21             14.03224
            11               16                   21             14.03224
            12               15                   19             14.65157
            13               14                   19             14.65157
            14               17                   22             14.71561
            15               16                   22             14.71561
            16               17                   23             14.71561
            17               16                   23             14.71561
            18               17                   24             15.74062
            19               17                   25             15.74062
            20               16                   24             15.74062

      Number of active states:                                        323
 -------------------------------------------------------------------------------
 
 -------------------------------------------------------------------------------
 -                      TDDFPT WAVEFUNCTION OPTIMIZATION                       -
 -------------------------------------------------------------------------------

          Step            Time         Convergence           Conv. states
 -------------------------------------------------------------------------------

    State    Exc. energy (eV)      Convergence (eV)
        1       3.7234482            -1.6682E+00
        2       3.7234482            -1.6682E+00
        3       6.4339806            -1.7710E+00
        4       6.4339806            -1.7710E+00
        5      10.1629850             1.3584E-01
        6      10.1629850            -1.6752E+00
        7      10.7908402            -1.0474E+00
        8      12.5574146            -1.4670E+00
        9      12.5574146            -1.4670E+00
       10      12.5971977            -1.4350E+00
       11      12.5971977            -1.4350E+00
       12      12.7402005            -1.9114E+00
       13      12.7883434            -1.8632E+00
       14      12.8327055            -1.8829E+00
       15      13.2625109            -1.4531E+00
       16      13.2625109            -1.4531E+00
       17      13.8899991            -8.2561E-01
       18      13.9377755            -1.8028E+00
       19      13.9789127            -1.7617E+00
       20      17.4903705             1.7498E+00

             1            20.1          7.0241E-02                      0

    State    Exc. energy (eV)      Convergence (eV)
        1       3.6154173            -1.0803E-01
        2       3.6154173            -1.0803E-01
        3       6.3486187            -8.5362E-02
        4       6.3486187            -8.5362E-02
        5      10.1337185            -2.9266E-02
        6      10.1337185            -2.9266E-02
        7      10.1518661            -6.3897E-01
        8      12.4054836            -1.5193E-01
        9      12.4054836            -1.5193E-01
       10      12.5275447            -6.9653E-02
       11      12.5275447            -6.9653E-02
       12      12.7025106            -3.7690E-02
       13      12.7548581            -3.3485E-02
       14      12.7558152            -7.6890E-02
       15      13.1350752            -1.2744E-01
       16      13.1350752            -1.2744E-01
       17      13.7382506            -1.5175E-01
       18      13.8719168            -6.5859E-02
       19      13.9081711            -7.0742E-02
       20      14.0540195            -3.4364E+00

             2            19.5          1.2628E-01                      0

    State    Exc. energy (eV)      Convergence (eV)
        1       3.6143508            -1.0664E-03
        2       3.6143508            -1.0664E-03
        3       6.3471130            -1.5057E-03
        4       6.3471130            -1.5057E-03
        5      10.1331141            -6.0434E-04
        6      10.1331141            -6.0434E-04
        7      10.1490759            -2.7902E-03
        8      12.4005865            -4.8971E-03
        9      12.4005865            -4.8971E-03
       10      12.5264992            -1.0454E-03
       11      12.5264992            -1.0454E-03
       12      12.7025103            -3.5951E-07
       13      12.7548562            -1.9517E-06
       14      12.7548605            -9.5462E-04
       15      13.1257033            -9.3719E-03
       16      13.1257033            -9.3719E-03
       17      13.7298389            -8.4117E-03
       18      13.8719160            -8.2624E-07
       19      13.9081117            -5.9405E-05
       20      13.9083965            -1.4562E-01

             3            19.5          5.3515E-03                      2

    State    Exc. energy (eV)      Convergence (eV)
        1       3.6143494            -1.4591E-06
        2       3.6143494            -1.4591E-06
        3       6.3471118            -1.2390E-06
        4       6.3471118            -1.2390E-06
        5      10.1331133            -8.7961E-07
        6      10.1331133            -8.7961E-07
        7      10.1490731            -2.7223E-06
        8      12.4005691            -1.7393E-05
        9      12.4005691            -1.7393E-05
       10      12.5264839            -1.5309E-05
       11      12.5264839            -1.5309E-05
       12      12.7025103            -6.0444E-11
       13      12.7548562            -4.5894E-09
       14      12.7548591            -1.4680E-06
       15      13.1256198            -8.3572E-05
       16      13.1256198            -8.3572E-05
       17      13.7298111            -2.7756E-05
       18      13.8719160            -6.8317E-09
       19      13.9080738            -3.7877E-05
       20      13.9081114            -2.8509E-04

             4            20.1          1.0477E-05                      5

    State    Exc. energy (eV)      Convergence (eV)
        1       3.6143494            -8.5823E-10
        2       3.6143494            -8.5822E-10
        3       6.3471118            -1.2519E-09
        4       6.3471118            -1.2519E-09
        5      10.1331133            -1.1096E-09
        6      10.1331133            -1.1096E-09
        7      10.1490731            -1.8393E-09
        8      12.4005691            -3.5580E-08
        9      12.4005691            -3.5580E-08
       10      12.5264839            -4.2576E-08
       11      12.5264839            -4.2576E-08
       12      12.7025103            -1.3142E-13
       13      12.7548562            -7.9454E-12
       14      12.7548591            -2.8616E-09
       15      13.1256193            -4.0746E-07
       16      13.1256194            -4.0746E-07
       17      13.7298110            -6.6563E-08
       18      13.8719160            -2.0296E-11
       19      13.9080728            -9.4911E-07
       20      13.9081114            -5.8810E-10

             5            19.2          3.4879E-08                     20
 
 -------------------------------------------------------------------------------
 -  TDDFPT run converged in 5 iteration(s) 
 -------------------------------------------------------------------------------

 R-TDDFPT states of multiplicity 1
 Transition dipoles calculated using velocity formulation

         State    Excitation        Transition dipole (a.u.)        Oscillator
         number   energy (eV)       x           y           z     strength (a.u.)
         ------------------------------------------------------------------------
 TDDFPT|      1       3.61435   1.5091E-13 -2.7013E-04  4.8409E-02   2.07520E-04
 TDDFPT|      2       3.61435  -1.6643E-13 -4.8409E-02 -2.7013E-04   2.07520E-04
 TDDFPT|      3       6.34711   1.9951E-10  5.2975E-14 -1.3020E-10   8.82580E-21
 TDDFPT|      4       6.34711  -1.9975E-10  1.3035E-10  5.1457E-14   8.84671E-21
 TDDFPT|      5      10.13311  -4.1606E-08  1.6673E-10 -1.8695E-14   4.29755E-16
 TDDFPT|      6      10.13311   4.1616E-08 -2.5850E-14 -1.6676E-10   4.29959E-16
 TDDFPT|      7      10.14907   1.2535E+00 -6.2756E-14 -7.2571E-14   3.90661E-01
 TDDFPT|      8      12.40057   1.2240E-10 -3.4620E-12  3.4423E-08   3.59993E-16
 TDDFPT|      9      12.40057   1.2277E-10  3.4423E-08  3.3387E-12   3.59990E-16
 TDDFPT|     10      12.52648  -2.1717E-13  2.1668E-03 -7.7593E-01   1.84772E-01
 TDDFPT|     11      12.52648   2.1897E-13  7.7593E-01  2.1668E-03   1.84772E-01
 TDDFPT|     12      12.70251   2.9885E-11  2.3524E-13 -2.1993E-13   2.77979E-22
 TDDFPT|     13      12.75486  -5.5340E-12 -3.7517E-13 -3.6002E-13   9.65435E-24
 TDDFPT|     14      12.75486  -4.5354E-09  3.7331E-13 -3.8736E-13   6.42774E-18
 TDDFPT|     15      13.12562  -1.4841E-13  1.7795E-04 -5.9560E-01   1.14074E-01
 TDDFPT|     16      13.12562   1.5986E-13  5.9560E-01  1.7795E-04   1.14074E-01
 TDDFPT|     17      13.72981   1.0105E+00  2.1486E-13  2.2917E-13   3.43505E-01
 TDDFPT|     18      13.87192  -1.0888E-09  4.6324E-14 -5.0945E-14   4.02878E-19
 TDDFPT|     19      13.90807   2.4510E-07  4.5789E-13 -5.8703E-14   2.04689E-14
[...]
 -                                                                             -
 -------------------------------------------------------------------------------
 SUBROUTINE                       CALLS  ASD         SELF TIME        TOTAL TIME
                                MAXIMUM       AVERAGE  MAXIMUM  AVERAGE  MAXIMUM
 CP2K                                 1  1.0    0.024    0.044  103.736  103.737
 qs_energies                          1  2.0    0.000    0.000  103.512  103.513
 qs_energies_properties               1  3.0    0.000    0.000   99.658   99.659
 tddfpt                               1  4.0    0.000    0.000   99.658   99.659
 tddfpt_energies                      1  5.0    0.000    0.000   99.610   99.611
 tddfpt_davidson_solver               1  6.0    0.000    0.001   98.482   98.483
 tddfpt_compute_Aop_evects            5  7.0    0.000    0.000   96.812   96.813
 fhxc_kernel                          5  8.0    0.004    0.005   77.448   77.455
 fft_wrap_pw1pw2                   2035 11.5    0.036    0.047   31.937   32.290
 fft_wrap_pw1pw2_250               1423 12.5    0.919    1.251   30.042   30.364
 fft3d_ps                          2035 13.5    4.983    6.546   28.451   28.835
 tddfpt_apply_coulomb               100  9.0    0.002    0.002   23.714   23.908
 mp_alltoall_z22v                  2035 15.5   20.529   22.145   20.529   22.145
 qs_rho_update_rho_low              103  8.9    0.001    0.001   21.334   21.335
 calculate_rho_elec                 103  9.9    0.102    0.128   21.255   21.256
 pw_poisson_solve                   101 10.0    0.230    0.286   18.957   19.155
 tddfpt_apply_hfx                     5  8.0    0.001    0.002   18.551   18.551
 integrate_four_center              201 10.0    7.486   15.535   17.908   17.947
 mp_sync                           1059 11.7    9.725   17.199    9.725   17.199
 tddfpt_apply_xc_analytic           100  9.0    0.109    0.170   16.918   17.077
 tddft_hfx_matrix                   200  9.0    0.002    0.007   15.772   15.803
 xc_pw_derive                       609 11.0    0.004    0.005   13.844   14.343
 x_to_yz                            712 14.1    0.757    1.147   11.280   11.755
 density_rs2pw                      103 10.9    0.004    0.005   11.030   11.416
 yz_to_x                            711 15.0    0.428    0.622   10.248   11.277
 grid_collocate_task_list           103 10.9    9.849   10.590    9.849   10.590
 ps_wavelet_solve                   101 11.0    4.401    5.690   10.060   10.239
 xc_calc_2nd_deriv_analytical       300 10.0    0.484    0.675    9.748    9.820
 integrate_v_rspace                 101  9.0    0.003    0.005    9.401    9.426
 xc_pw_divergence                   101 11.0    0.002    0.002    9.039    9.370
 potential_pw2rs                    101 10.0    0.006    0.007    9.009    9.064
 transfer_rs2pw                     515 11.7    0.015    0.018    8.115    8.504
 transfer_pw2rs                     506 11.0    0.008    0.013    8.080    8.274
 mp_waitany                       32302 13.2    7.083    7.735    7.083    7.735
 mp_alltoall_d54                    101 12.0    2.666    6.630    2.666    6.630
 prepare_gapw_den                   102  9.0    0.001    0.001    5.810    5.857
 transfer_rs2pw_250                 206 12.4    1.522    1.662    4.665    5.110
 put_rho0_on_grid                   102 10.0    0.105    0.137    4.909    4.957
 transfer_pw2rs_250                 203 12.0    1.433    1.646    4.649    4.928
 cp_dbcsr_sm_fm_multiply            647  8.5    0.008    0.010    4.658    4.693
 mp_alltoall_d11v                  8539 11.7    3.996    4.275    3.996    4.275
 mp_alltoall_d45                    102 12.0    3.035    3.676    3.035    3.676
 dbcsr_complete_redistribute       2034 10.5    0.050    0.095    3.592    3.641
 scf_env_do_scf                       1  3.0    0.000    0.000    3.396    3.396
 init_scf_loop                        1  4.0    0.000    0.000    3.120    3.120
 qs_ks_update_qs_env                  2  5.0    0.000    0.000    3.093    3.093
 rebuild_ks_matrix                    1  6.0    0.000    0.000    3.093    3.093
 qs_ks_build_kohn_sham_matrix         1  7.0    0.001    0.001    3.093    3.093
 integrate_vhg0_rspace              101 10.0    0.069    0.097    2.952    2.971
 mp_waitall_1                    282382 13.3    2.097    2.656    2.097    2.656
 copy_fm_to_dbcsr                  1356  9.6    0.003    0.004    2.450    2.496
 copy_dbcsr_to_fm                   676  9.4    0.005    0.005    2.177    2.193
 hfx_ks_matrix                        1  8.0    0.000    0.000    2.138    2.147
 integrate_four_center_main         201 11.0    0.030    1.392    0.036    1.859
 transfer_rs2pw_30                  103 12.9    0.680    0.786    1.671    1.828
 mp_alltoall_i11v                  6779 11.5    1.800    1.802    1.800    1.802
 transfer_pw2rs_30                  101 12.0    0.481    0.521    1.448    1.687
 calculate_xc_2nd_deriv_atom        100  9.0    0.015    0.181    0.037    1.672
 transfer_pw2rs_90                  101 12.0    0.244    0.355    1.384    1.566
 transfer_rs2pw_90                  103 12.9    0.306    0.431    1.327    1.503
 rs_grid_zero                       508 12.2    1.373    1.455    1.373    1.455
 mp_sendrecv_dv                   52530 13.9    1.273    1.439    1.273    1.439
 gaVxcgb_GC                         101 10.0    0.011    1.399    0.011    1.399
 cp2k_distribution_to_z_slices      101 11.0    0.325    0.377    1.184    1.315
 integrate_four_center_bin        17306 12.0    0.006    1.276    0.006    1.276
 parallel_gemm_fm                   862  8.3    0.001    0.001    1.221    1.265
 parallel_gemm_fm_cosma             862  9.3    1.221    1.265    1.221    1.265
 mp_alltoall_z11v                   612 15.5    1.161    1.215    1.161    1.215
 fft_wrap_pw1pw2_90                 204 12.5    0.037    0.060    1.154    1.204
 pw_derive                          912 12.0    1.019    1.165    1.019    1.165
 pw_copy                           1320 11.1    0.934    1.150    0.934    1.150
 pw_gather_p                       1020 13.9    0.925    1.083    0.925    1.083
 mp_sum_d                          1350  7.1    0.705    1.061    0.705    1.061
 pw_scatter_p                      1015 13.1    0.877    1.045    0.877    1.045
 dbcsr_desymmetrize_deep            677 10.4    0.009    0.010    1.000    1.014
 dbcsr_multiply_generic             868 10.4    0.019    0.027    0.980    0.999
 calculate_rho_atom                 102 10.0    0.263    0.842    0.263    0.842
 tddfpt_apply_energy_diff             5  8.0    0.000    0.000    0.812    0.813
 cp_dbcsr_sm_fm_multiply_core       647  9.5    0.001    0.001    0.781    0.799
 tddfpt_orthonormalize_psi1_psi       6  6.8    0.003    0.004    0.773    0.773
 transfer_pw2rs_10                  101 12.0    0.121    0.139    0.592    0.733
 mp_sum_dv                         6283  9.1    0.680    0.723    0.680    0.723
 tddfpt_compute_residual_vects        4  7.0    0.000    0.000    0.701    0.701
 yz_to_xz                           303 14.0    0.053    0.074    0.665    0.701
 mp_alltoall_i22                   2711 11.5    0.597    0.652    0.597    0.652
 xz_to_yz                           309 14.9    0.048    0.056    0.597    0.629
 pw_copy_to_array                  1020 13.9    0.426    0.629    0.426    0.629
 pw_poisson_set                     102 10.9    0.001    0.002    0.600    0.628
 pw_zero                           1312 10.6    0.473    0.616    0.473    0.616
 mp_sum_dm                          635 10.9    0.412    0.579    0.412    0.579
 pw_axpy                           1118 11.3    0.457    0.562    0.457    0.562
 transfer_rs2pw_10                  103 12.9    0.156    0.188    0.438    0.543
 cp_dbcsr_plus_fm_fm_t              101  9.0    0.001    0.001    0.509    0.511
 hybrid_alltoall_any               2413 13.5    0.011    0.013    0.482    0.487
 mp_rank_compare                   2035 14.5    0.440    0.466    0.440    0.466
 rs_gather_matrices                 101 10.0    0.001    0.011    0.382    0.456
 tddfpt_print_nto_analysis            1  6.0    0.002    0.002    0.455    0.455
 pw_copy_from_array                1015 13.1    0.259    0.448    0.259    0.448
 fft_wrap_pw1pw2_30                 204 12.5    0.005    0.006    0.402    0.433
 Vh_1c_gg_integrals                 101 10.0    0.008    0.198    0.272    0.371
 init_scf_run                         1  3.0    0.000    0.000    0.352    0.352
 scf_env_initial_rho_setup            1  4.0    0.000    0.000    0.352    0.352
 multiply_cannon                    868 11.4    0.060    0.065    0.324    0.342
 pw_integral_ab_c1d_c1d_gs          101 11.0    0.232    0.247    0.312    0.336
 mp_sum_l                          3465 10.2    0.319    0.329    0.319    0.329
 tddfpt_construct_ground_state_       1  6.0    0.000    0.000    0.326    0.327
 make_m2s                          1736 11.4    0.012    0.013    0.315    0.327
 fft_wrap_pw1pw2_10                 204 12.5    0.001    0.002    0.304    0.322
 prepare_dr1dr                      300 11.0    0.189    0.322    0.189    0.322
 make_images                       1736 12.4    0.043    0.056    0.293    0.304
 mp_max_i                           557  3.6    0.173    0.289    0.173    0.289
 pw_poisson_rebuild                 101 11.0    0.000    0.000    0.266    0.275
 ps_wavelet_create                    1 10.0    0.000    0.000    0.265    0.275
 RS_z_slice_distribution              1 11.0    0.175    0.194    0.265    0.275
 scf_env_do_scf_inner_loop            1  4.0    0.000    0.000    0.265    0.273
 mp_isendrecv_dv                 154020 12.3    0.108    0.270    0.108    0.270
 grid_integrate_task_list           101 10.0    0.008    0.266    0.008    0.266
 integrate_four_center_getP         201 11.0    0.035    0.043    0.239    0.253
 powell_optimize                 130263 11.0    0.187    0.219    0.187    0.219
 multiply_cannon_loop               868 12.4    0.037    0.039    0.198    0.214
 make_images_sizes                 1736 13.4    0.001    0.001    0.203    0.213
 calc_screening_functions             1 10.0    0.098    0.102    0.198    0.213
 mp_alltoall_i44                   1736 14.4    0.201    0.212    0.201    0.212
 mp_isend_dm3                      4494 13.3    0.120    0.210    0.120    0.210
 tddfpt_orthogonalize_psi1_psi0       6  6.8    0.000    0.000    0.194    0.198
 xc_rho_set_and_dset_create           2  9.0    0.007    0.010    0.169    0.180
 sum_up_and_integrate                 1  8.0    0.000    0.000    0.171    0.178
 qs_vxc_create                        1  8.0    0.000    0.000    0.167    0.167
 xc_vxc_pw_create                     1  9.0    0.002    0.002    0.167    0.167
 integrate_four_center_dist_KS      201 11.0    0.035    0.044    0.166    0.167
 calc_pair_dist_radii                 1 10.0    0.059    0.061    0.147    0.162
 cube_transpose_1                   303 14.0    0.014    0.024    0.113    0.138
 cp_fm_trace_a1b1t1_aa             5260  8.0    0.009    0.012    0.133    0.134
 cube_transpose_2                   309 14.9    0.019    0.024    0.106    0.128
 mp_cart_sub                       1357 11.4    0.121    0.123    0.121    0.123
 tddfpt_is_nonorthogonal_psi1_p       4  7.0    0.000    0.000    0.118    0.118
 dbcsr_finalize                    3825 11.4    0.010    0.011    0.064    0.107
 create_kernel_env                    1  6.0    0.000    0.000    0.095    0.102
 xc_prep_2nd_deriv                    1  7.0    0.000    0.000    0.095    0.102
 calculate_rho0_atom                102 10.0    0.097    0.102    0.097    0.102
 cp_fm_diag_elpa                     47  7.6    0.000    0.000    0.094    0.095
 xc_2nd_deriv_of_r                  200 10.0    0.000    0.016    0.001    0.094
 mp_cart_create                     782 11.2    0.084    0.092    0.085    0.093
 cp_fm_diag_elpa_base                47  8.5    0.087    0.089    0.089    0.090
 dbcsr_merge_all                   3107 12.5    0.031    0.073    0.044    0.085
 create_qs_kind_set                   1  2.0    0.000    0.000    0.084    0.084
 read_qs_kind                         1  3.0    0.037    0.045    0.084    0.084
 mp_isend_dv                      54502 13.8    0.065    0.082    0.065    0.082
 cp_fm_write_unformatted             21  7.0    0.082    0.082    0.082    0.082
 tddfpt_write_restart                 1  6.0    0.000    0.045    0.073    0.080
 calculate_rho_atom_coeff           103  9.9    0.013    0.026    0.078    0.079
 update_ks_atom                     101  9.0    0.009    0.015    0.064    0.078
 rs_scatter_matrices                103 10.9    0.000    0.001    0.075    0.076
 scale_and_distribute               202 12.0    0.049    0.076    0.049    0.076
 qs_init_subsys                       1  2.0    0.001    0.001    0.075    0.075
 qs_env_setup                         1  3.0    0.000    0.000    0.072    0.072
 qs_env_rebuild_pw_env                2  3.5    0.000    0.000    0.071    0.072
 pw_env_rebuild                       1  5.0    0.000    0.000    0.071    0.072
 calculate_first_density_matrix       1  5.0    0.000    0.031    0.069    0.070
 mp_bcast_dm                        407 10.0    0.055    0.069    0.055    0.069
 cp_fm_geeig                         20  7.0    0.001    0.001    0.066    0.068
 pw_grid_setup                        4  6.0    0.000    0.000    0.066    0.067
 pw_grid_setup_internal               4  7.0    0.001    0.002    0.066    0.066
 pw_scale                           204  9.5    0.040    0.059    0.040    0.059
 mp_bcast_b_src                      51  9.3    0.058    0.059    0.058    0.059
 xc_functional_eval                 204 10.4    0.000    0.001    0.006    0.058
 pbe_lda_eval                       204 11.4    0.006    0.057    0.006    0.057
 multiply_cannon_metrocomm3       13888 13.4    0.018    0.019    0.040    0.055
 scf_post_calculation_gpw             1  3.0    0.000    0.000    0.055    0.055
 write_available_results              1  4.0    0.000    0.000    0.055    0.055
 write_mo_free_results                1  5.0    0.002    0.002    0.055    0.055
 mp_irecv_dm3                      4494 13.3    0.015    0.053    0.015    0.053
 mp_allgather_i34                   868 12.4    0.048    0.052    0.048    0.052
 qs_energies_init_hamiltonians        1  3.0    0.000    0.000    0.051    0.051
 multiply_cannon_metrocomm1       13888 13.4    0.019    0.019    0.044    0.051
 integrate_four_center_load         201 11.0    0.000    0.000    0.043    0.050
 hfx_load_balance                     1 11.0    0.000    0.000    0.043    0.050
 parser_read_line                 15171  4.0    0.002    0.003    0.047    0.048
 build_core_hamiltonian_matrix        1  4.0    0.000    0.000    0.046    0.046
 parser_read_line_low                18  5.0    0.001    0.010    0.045    0.046
 overlap_condnum                      1  5.0    0.000    0.000    0.045    0.046
 mp_irecv_dv                      54710 13.8    0.025    0.045    0.025    0.045
 broadcast_input_information         18  6.0    0.006    0.006    0.044    0.045
 multiply_cannon_metrocomm2       13020 13.4    0.020    0.023    0.035    0.043
 multiply_cannon_metrocomm4       13020 13.4    0.019    0.021    0.033    0.041
 pw_grid_sort                         4  8.0    0.024    0.026    0.034    0.040
 dbcsr_create_new                 12224 11.7    0.027    0.030    0.035    0.040
 hfx_load_balance_range               1 12.0    0.000    0.000    0.031    0.037
 tddfpt_print_excitation_analys       1  6.0    0.000    0.004    0.034    0.035
 make_images_data                  1736 13.4    0.011    0.014    0.025    0.033
 mp_bcast_i_src                      77  7.0    0.024    0.031    0.024    0.031
 copy_fm_to_dbcsr_bc               1356 10.6    0.007    0.009    0.026    0.030
 cp_fm_maxabsval                     80  8.0    0.000    0.000    0.023    0.028
 mp_max_d                            81  8.9    0.023    0.028    0.023    0.028
 read_mo_set_from_restart             1  6.0    0.000    0.028    0.021    0.028
 tddfpt_dipole_operator               1  5.0    0.000    0.000    0.027    0.027
 hirshfeld_integration                1  6.0    0.000    0.002    0.026    0.027
 calculate_hirshfeld_normalizat       1  6.0    0.000    0.002    0.025    0.026
 arnoldi_conjugate_gradient           5  6.0    0.000    0.001    0.022    0.022
 tddfpt_compute_ritz_vects            5  7.0    0.001    0.002    0.021    0.022
 mp_maxloc_dv                      1313  1.0    0.021    0.021    0.021    0.021
 prepare_preconditioner               1  5.0    0.000    0.000    0.021    0.021
 make_preconditioner                  1  6.0    0.000    0.000    0.021    0.021
 qs_scf_new_mos                       1  5.0    0.000    0.000    0.020    0.020
 qs_scf_loop_do_ot                    1  6.0    0.000    0.000    0.020    0.020
 mp_sum_iv                          364  7.1    0.019    0.020    0.019    0.020
 mp_cart_rank                    104240 11.5    0.017    0.019    0.017    0.019
 write_mo_set_to_restart              1  5.0    0.000    0.015    0.012    0.019
 ot_scf_mini                          1  7.0    0.000    0.000    0.019    0.019
 dbcsr_sym_matrix_vector_mult       235  8.2    0.002    0.002    0.011    0.018
 sort_shells                          4  9.0    0.010    0.016    0.010    0.016
 dbcsr_iterator_start             16439 12.0    0.011    0.013    0.014    0.016
 mp_bcast_am_src                     18  7.0    0.013    0.015    0.014    0.016
 mp_isend_iv                      29508 14.4    0.010    0.016    0.010    0.016
 ot_mini                              1  8.0    0.000    0.000    0.016    0.016
 dbcsr_data_new                   48488 12.5    0.014    0.016    0.014    0.016
 multiply_cannon_multrec          13888 13.4    0.007    0.013    0.009    0.015
 dbcsr_destroy                    11941 11.0    0.009    0.009    0.014    0.015
 calculate_vxc_atom                   1  8.0    0.000    0.001    0.015    0.015
 dbcsr_work_create                 5520 12.2    0.008    0.010    0.013    0.015
 qs_ot_get_derivative                 1  9.0    0.000    0.000    0.015    0.015
 make_full_single_inverse             1  7.0    0.000    0.000    0.015    0.015
 dbcsr_data_release               74309 12.8    0.013    0.014    0.013    0.014
 dbcsr_copy                        2709 10.4    0.004    0.007    0.011    0.014
 make_basis_sm                        1  6.0    0.000    0.000    0.014    0.014
 cp_fm_cholesky_decompose            23  7.9    0.012    0.014    0.012    0.014
 dbcsr_make_untransposed_blocks    1373 11.4    0.004    0.011    0.006    0.013
 mp_bcast_av                        657  1.0    0.005    0.006    0.011    0.013
 cp_fm_triangular_invert             20  8.0    0.012    0.012    0.012    0.012
 tree_to_linear_d                  2034 13.5    0.009    0.012    0.009    0.012
 pw_pool_create_pw                 3576 11.1    0.007    0.008    0.010    0.012
 pw_grid_remap                        4  8.0    0.002    0.002    0.010    0.011
 get_fft_scratch                   2036 14.5    0.008    0.009    0.010    0.011
 -------------------------------------------------------------------------------

 The number of warnings for this run is : 1
 
 -------------------------------------------------------------------------------
  **** **** ******  **  PROGRAM ENDED AT                 2025-06-04 18:40:36.433
 ***** ** ***  *** **   PROGRAM RAN ON                                  n2cn0333
 **    ****   ******    PROGRAM RAN BY                                  metdyn02
 ***** **    ** ** **   PROGRAM PROCESS ID                                635945
  **** **  *******  **  PROGRAM STOPPED IN /scratch/hpc-prf-metdyn/metdyn02_Remi
                                           /10_MOL/05_MOL/W4-11+ALK/cl2/SZVSR/TD
                                           DFT/RILIM
