SIRIUS 7.5.2, git hash: https://api.github.com/repos/electronic-structure/SIRIUS/git/ref/tags/v7.5.2
 DBCSR| CPU Multiplication driver                                           XSMM (U)
 DBCSR| Multrec recursion limit                                              512 (U)
 DBCSR| Multiplication stack size                                           1000 (D)
 DBCSR| Maximum elements for images                                    UNLIMITED (U)
 DBCSR| Multiplicative factor virtual images                                   1 (U)
 DBCSR| Use multiplication densification                                       T (D)
 DBCSR| Multiplication size stacks                                             3 (U)
 DBCSR| Use memory pool for CPU allocation                                     F (U)
 DBCSR| Number of 3D layers                                               SINGLE (U)
 DBCSR| Use MPI memory allocation                                              F (U)
 DBCSR| Use RMA algorithm                                                      F (U)
 DBCSR| Use Communication thread                                               T (U)
 DBCSR| Communication thread load                                             75 (D)
 DBCSR| MPI: My process id                                                     0
 DBCSR| MPI: Number of processes                                             192
 DBCSR| OMP: Current number of threads                                         4
 DBCSR| OMP: Max number of threads                                             4
 DBCSR| Split modifier for TAS multiplication algorithm                  1.0E+00 (U)


  **** **** ******  **  PROGRAM STARTED AT               2025-03-25 18:13:44.817
 ***** ** ***  *** **   PROGRAM STARTED ON                              n2cn0225
 **    ****   ******    PROGRAM STARTED BY                              metdyn02
 ***** **    ** ** **   PROGRAM PROCESS ID                               3187043
  **** **  *******  **  PROGRAM STARTED IN /scratch/hpc-prf-metdyn/metdyn02_Remi
                                           /10_MOL/05_MOL/aUKBqsEOTmq69kFe5R_nOg
                                           /5k_set_final_qzvp/FAYZOU/TZVP/TDDFT/
                                           1e-4

 CP2K| version string:                 CP2K version 2025.1 (Development Version)
 CP2K| source code revision number:                                  git:9754b87
 CP2K| cp2kflags: omp libint fftw3 libxc libgrpp elpa parallel scalapack mpi_f08
 CP2K|             cosma xsmm plumed2 spglib sirius libvori libbqb libvdwxc hdf5
 CP2K| is freely available from                            https://www.cp2k.org/
 CP2K| Program compiled at                          Sun Mar 23 00:44:01 CET 2025
 CP2K| Program compiled on                                              n2login1
 CP2K| Program compiled for                                                local
 CP2K| Data directory path    /opt/software/pc2/EB-SW/software/CP2K/2024.1-foss-
 CP2K| Input file name                                                    GW.inp

 GLOBAL| Force Environment number                                              1
 GLOBAL| Basis set file name            /scratch/hpc-prf-metdyn/metdyn02_Remi/BA
 GLOBAL| Potential file name            /pc2/groups/hpc-prf-metdyn/metdyn02_Remi
 GLOBAL| MM Potential file name                                     MM_POTENTIAL
 GLOBAL| Coordinate file name                                      __STD_INPUT__
 GLOBAL| Method name                                                        CP2K
 GLOBAL| Project name                                                       MoS2
 GLOBAL| Run type                                                         ENERGY
 GLOBAL| FFT library                                                       FFTW3
 GLOBAL| Diagonalization library                                            ELPA
 GLOBAL| DGEMM library                                                      BLAS
 GLOBAL| Minimum number of eigenvectors for ELPA usage                        16
 GLOBAL| Orthonormality check for eigenvectors                          DISABLED
 GLOBAL| Matrix multiplication library                                     COSMA
 GLOBAL| All-to-all communication in single precision                          F
 GLOBAL| FFTs using library dependent lengths                                  F
 GLOBAL| Grid backend                                                       AUTO
 GLOBAL| Global print level                                               MEDIUM
 GLOBAL| MPI I/O enabled                                                       T
 GLOBAL| Total number of message passing processes                           192
 GLOBAL| Number of threads for this process                                    4
 GLOBAL| This output is from process                                           0
 GLOBAL| OpenMP stack size per thread (OMP_STACKSIZE)                    default
 GLOBAL| CPU model name                          AMD EPYC 7763 64-Core Processor
 GLOBAL| CPUID                                                              1002

 MEMORY| system memory details [Kb]
 MEMORY|                        rank 0           min           max       average
 MEMORY| MemTotal            263899264     263899256     263899264     263899261
 MEMORY| MemFree             244745972     238932868     244745972     242865595
 MEMORY| Buffers                114172        114172        283704        179232
 MEMORY| Cached                5653924       5494156      10554400       7078760
 MEMORY| Slab                  1998984       1998984       2672068       2376581
 MEMORY| SReclaimable           285532        285532        800428        504912
 MEMORY| MemLikelyFree       250799600     250204044     250910896     250628499


 *** Fundamental physical constants (SI units) ***

 *** Literature: B. J. Mohr and B. N. Taylor,
 ***             CODATA recommended values of the fundamental physical
 ***             constants: 2006, Web Version 5.1
 ***             http://physics.nist.gov/constants

 Speed of light in vacuum [m/s]                             2.99792458000000E+08
 Magnetic constant or permeability of vacuum [N/A**2]       1.25663706143592E-06
 Electric constant or permittivity of vacuum [F/m]          8.85418781762039E-12
 Planck constant (h) [J*s]                                  6.62606896000000E-34
 Planck constant (h-bar) [J*s]                              1.05457162825177E-34
 Elementary charge [C]                                      1.60217648700000E-19
 Electron mass [kg]                                         9.10938215000000E-31
 Electron g factor [ ]                                     -2.00231930436220E+00
 Proton mass [kg]                                           1.67262163700000E-27
 Fine-structure constant                                    7.29735253760000E-03
 Rydberg constant [1/m]                                     1.09737315685270E+07
 Avogadro constant [1/mol]                                  6.02214179000000E+23
 Boltzmann constant [J/K]                                   1.38065040000000E-23
 Atomic mass unit [kg]                                      1.66053878200000E-27
 Bohr radius [m]                                            5.29177208590000E-11

 *** Conversion factors ***

 [u] -> [a.u.]                                              1.82288848426455E+03
 [Angstrom] -> [Bohr] = [a.u.]                              1.88972613288564E+00
 [a.u.] = [Bohr] -> [Angstrom]                              5.29177208590000E-01
 [a.u.] -> [s]                                              2.41888432650478E-17
 [a.u.] -> [fs]                                             2.41888432650478E-02
 [a.u.] -> [J]                                              4.35974393937059E-18
 [a.u.] -> [N]                                              8.23872205491840E-08
 [a.u.] -> [K]                                              3.15774647902944E+05
 [a.u.] -> [kJ/mol]                                         2.62549961709828E+03
 [a.u.] -> [kcal/mol]                                       6.27509468713739E+02
 [a.u.] -> [Pa]                                             2.94210107994716E+13
 [a.u.] -> [bar]                                            2.94210107994716E+08
 [a.u.] -> [atm]                                            2.90362800883016E+08
 [a.u.] -> [eV]                                             2.72113838565563E+01
 [a.u.] -> [Hz]                                             6.57968392072181E+15
 [a.u.] -> [1/cm] (wave numbers)                            2.19474631370540E+05
 [a.u./Bohr**2] -> [1/cm]                                   5.14048714338585E+03
 

 CELL_TOP| Volume [angstrom^3]:                                     27000.000000
 CELL_TOP| Vector a [angstrom    30.000     0.000     0.000   |a| =    30.000000
 CELL_TOP| Vector b [angstrom     0.000    30.000     0.000   |b| =    30.000000
 CELL_TOP| Vector c [angstrom     0.000     0.000    30.000   |c| =    30.000000
 CELL_TOP| Angle (b,c), alpha [degree]:                                90.000000
 CELL_TOP| Angle (a,c), beta  [degree]:                                90.000000
 CELL_TOP| Angle (a,b), gamma [degree]:                                90.000000
 CELL_TOP| Numerically orthorhombic:                                         YES
 CELL_TOP| Periodicity                                                      NONE

 GENERATE|  Preliminary Number of Bonds generated:                             0
 GENERATE|  Achieved consistency in connectivity generation.

 CELL| Volume [angstrom^3]:                                         27000.000000
 CELL| Vector a [angstrom]:      30.000     0.000     0.000   |a| =    30.000000
 CELL| Vector b [angstrom]:       0.000    30.000     0.000   |b| =    30.000000
 CELL| Vector c [angstrom]:       0.000     0.000    30.000   |c| =    30.000000
 CELL| Angle (b,c), alpha [degree]:                                    90.000000
 CELL| Angle (a,c), beta  [degree]:                                    90.000000
 CELL| Angle (a,b), gamma [degree]:                                    90.000000
 CELL| Numerically orthorhombic:                                             YES
 CELL| Periodicity                                                          NONE

 CELL_REF| Volume [angstrom^3]:                                     27000.000000
 CELL_REF| Vector a [angstrom    30.000     0.000     0.000   |a| =    30.000000
 CELL_REF| Vector b [angstrom     0.000    30.000     0.000   |b| =    30.000000
 CELL_REF| Vector c [angstrom     0.000     0.000    30.000   |c| =    30.000000
 CELL_REF| Angle (b,c), alpha [degree]:                                90.000000
 CELL_REF| Angle (a,c), beta  [degree]:                                90.000000
 CELL_REF| Angle (a,b), gamma [degree]:                                90.000000
 CELL_REF| Numerically orthorhombic:                                         YES
 CELL_REF| Periodicity                                                      NONE

 *******************************************************************************
 *******************************************************************************
 **                                                                           **
 **     #####                         ##              ##                      **
 **    ##   ##            ##          ##              ##                      **
 **   ##     ##                       ##            ######                    **
 **   ##     ##  ##   ##  ##   #####  ##  ##   ####   ##    #####    #####    **
 **   ##     ##  ##   ##  ##  ##      ## ##   ##      ##   ##   ##  ##   ##   **
 **   ##  ## ##  ##   ##  ##  ##      ####     ###    ##   ######   ######    **
 **    ##  ###   ##   ##  ##  ##      ## ##      ##   ##   ##       ##        **
 **     #######   #####   ##   #####  ##  ##  ####    ##    #####   ##        **
 **           ##                                                    ##        **
 **                                                                           **
 **                                                ... make the atoms dance   **
 **                                                                           **
 **            Copyright (C) by CP2K developers group (2000-2025)             **
 **                      J. Chem. Phys. 152, 194103 (2020)                    **
 **                                                                           **
 *******************************************************************************

 DFT| Spin restricted Kohn-Sham (RKS) calculation                            RKS
 DFT| Multiplicity                                                             1
 DFT| Number of spin states                                                    1
 DFT| Charge                                                                   0
 DFT| Self-interaction correction (SIC)                                       NO
 DFT| Cutoffs: density                                              1.000000E-10
 DFT|          gradient                                             1.000000E-10
 DFT|          tau                                                  1.000000E-10
 DFT|          cutoff_smoothing_range                               0.000000E+00
 DFT| XC density smoothing                                                  NONE
 DFT| XC derivatives                                                          PW

 FUNCTIONAL| PBE:
 FUNCTIONAL| J.P.Perdew, K.Burke, M.Ernzerhof, Phys. Rev. Letter, vol. 77, n 18,
 FUNCTIONAL|  pp. 3865-3868, (1996)sx=0.750sc=1.000{spin unpolarized}           


 QS| Method:                                                                GAPW
 QS| Density plane wave grid type                        NON-SPHERICAL FULLSPACE
 QS| Number of grid levels:                                                    4
 QS| Density cutoff [a.u.]:                                                250.0
 QS| Multi grid cutoff [a.u.]: 1) grid level                               250.0
 QS|                           2) grid level                                83.3
 QS|                           3) grid level                                27.8
 QS|                           4) grid level                                 9.3
 QS| Grid level progression factor:                                          3.0
 QS| Relative density cutoff [a.u.]:                                        50.0
 QS| Interaction thresholds: eps_pgf_orb:                                1.0E-12
 QS|                         eps_filter_matrix:                          0.0E+00
 QS|                         eps_core_charge:                            1.0E-14
 QS|                         eps_rho_gspace:                             1.0E-12
 QS|                         eps_rho_rspace:                             1.0E-12
 QS|                         eps_gvg_rspace:                             1.0E-06
 QS|                         eps_ppl:                                    1.0E-02
 QS|                         eps_ppnl:                                   1.0E-08
 QS| GAPW|      One center basis from orbital basis primitives
 QS| GAPW|                   eps_fit:                                    1.0E-04
 QS| GAPW|                   eps_iso:                                    1.0E-12
 QS| GAPW|                   eps_svd:                                    1.0E-08
 QS| GAPW|                   eps_cpc:                                    1.0E-12
 QS| GAPW|   atom-r-grid: quadrature:                                     GC_LOG
 QS| GAPW|      atom-s-grid:  max l :                                          8
 QS| GAPW|      max_l_rho0 :                                                   2


 ATOMIC KIND INFORMATION

  1. Atomic kind: C                                     Number of atoms:       8

     Orbital Basis Set                                        aug-TZVP-MOLOPT-ae

       Number of orbital shell sets:                                           2
       Number of orbital shells:                                              16
       Number of primitive Cartesian functions:                               13
       Number of Cartesian basis functions:                                   71
       Number of spherical basis functions:                                   56
       Norm type:                                                              2

       Normalised Cartesian orbitals:

                        Set   Shell   Orbital            Exponent    Coefficient

                          1       1    1s                0.040000       0.000000
                                                         0.097098       0.019281
                                                         0.283960       0.027513
                                                         0.806764       0.003692
                                                         2.441624       0.446183
                                                         6.739673       1.752510
                                                        34.417212       0.637474

                          1       2    2s                0.040000       0.000000
                                                         0.097098       0.029117
                                                         0.283960       0.094997
                                                         0.806764       0.362633
                                                         2.441624      -0.104551
                                                         6.739673      -0.288836
                                                        34.417212       1.102934

                          1       3    3s                0.040000       0.000000
                                                         0.097098       0.047046
                                                         0.283960       0.169545
                                                         0.806764      -0.252838
                                                         2.441624      -0.199197
                                                         6.739673      -0.168746
                                                        34.417212      -6.120053

                          1       4    4s                0.040000       0.000000
                                                         0.097098       0.188374
                                                         0.283960      -0.341415
                                                         0.806764       0.091223
                                                         2.441624      -0.053941
                                                         6.739673      -0.401007
                                                        34.417212      -3.786931

                          1       5    5s                0.040000       0.099533
                                                         0.097098      -0.167672
                                                         0.283960      -0.126383
                                                         0.806764       0.030074
                                                         2.441624       0.000000
                                                         6.739673       0.000000
                                                        34.417212       0.000000

                          1       6    2px               0.040000       0.000000
                                                         0.097098       0.005087
                                                         0.283960       0.032186
                                                         0.806764       0.779023
                                                         2.441624       0.695625
                                                         6.739673       2.243109
                                                        34.417212       2.016536
                          1       6    2py               0.040000       0.000000
                                                         0.097098       0.005087
                                                         0.283960       0.032186
                                                         0.806764       0.779023
                                                         2.441624       0.695625
                                                         6.739673       2.243109
                                                        34.417212       2.016536
                          1       6    2pz               0.040000       0.000000
                                                         0.097098       0.005087
                                                         0.283960       0.032186
                                                         0.806764       0.779023
                                                         2.441624       0.695625
                                                         6.739673       2.243109
                                                        34.417212       2.016536

                          1       7    3px               0.040000       0.000000
                                                         0.097098       0.008084
                                                         0.283960       0.294367
                                                         0.806764      -0.188640
                                                         2.441624       0.912249
                                                         6.739673      -2.720242
                                                        34.417212       1.690366
                          1       7    3py               0.040000       0.000000
                                                         0.097098       0.008084
                                                         0.283960       0.294367
                                                         0.806764      -0.188640
                                                         2.441624       0.912249
                                                         6.739673      -2.720242
                                                        34.417212       1.690366
                          1       7    3pz               0.040000       0.000000
                                                         0.097098       0.008084
                                                         0.283960       0.294367
                                                         0.806764      -0.188640
                                                         2.441624       0.912249
                                                         6.739673      -2.720242
                                                        34.417212       1.690366

                          1       8    4px               0.040000       0.000000
                                                         0.097098       0.081068
                                                         0.283960      -0.017243
                                                         0.806764      -0.070055
                                                         2.441624      -0.855991
                                                         6.739673       1.761645
                                                        34.417212     -12.705833
                          1       8    4py               0.040000       0.000000
                                                         0.097098       0.081068
                                                         0.283960      -0.017243
                                                         0.806764      -0.070055
                                                         2.441624      -0.855991
                                                         6.739673       1.761645
                                                        34.417212     -12.705833
                          1       8    4pz               0.040000       0.000000
                                                         0.097098       0.081068
                                                         0.283960      -0.017243
                                                         0.806764      -0.070055
                                                         2.441624      -0.855991
                                                         6.739673       1.761645
                                                        34.417212     -12.705833

                          1       9    5px               0.040000       0.032085
                                                         0.097098      -0.027366
                                                         0.283960      -0.100343
                                                         0.806764      -0.020266
                                                         2.441624       0.000000
                                                         6.739673       0.000000
                                                        34.417212       0.000000
                          1       9    5py               0.040000       0.032085
                                                         0.097098      -0.027366
                                                         0.283960      -0.100343
                                                         0.806764      -0.020266
                                                         2.441624       0.000000
                                                         6.739673       0.000000
                                                        34.417212       0.000000
                          1       9    5pz               0.040000       0.032085
                                                         0.097098      -0.027366
                                                         0.283960      -0.100343
                                                         0.806764      -0.020266
                                                         2.441624       0.000000
                                                         6.739673       0.000000
                                                        34.417212       0.000000

                          1      10    3dx2              0.040000       0.000000
                                                         0.097098       0.001415
                                                         0.283960       0.015501
                                                         0.806764       0.546922
                                                         2.441624       3.763414
                                                         6.739673       4.248634
                                                        34.417212     174.894573
                          1      10    3dxy              0.040000       0.000000
                                                         0.097098       0.002451
                                                         0.283960       0.026849
                                                         0.806764       0.947296
                                                         2.441624       6.518424
                                                         6.739673       7.358850
                                                        34.417212     302.926287
                          1      10    3dxz              0.040000       0.000000
                                                         0.097098       0.002451
                                                         0.283960       0.026849
                                                         0.806764       0.947296
                                                         2.441624       6.518424
                                                         6.739673       7.358850
                                                        34.417212     302.926287
                          1      10    3dy2              0.040000       0.000000
                                                         0.097098       0.001415
                                                         0.283960       0.015501
                                                         0.806764       0.546922
                                                         2.441624       3.763414
                                                         6.739673       4.248634
                                                        34.417212     174.894573
                          1      10    3dyz              0.040000       0.000000
                                                         0.097098       0.002451
                                                         0.283960       0.026849
                                                         0.806764       0.947296
                                                         2.441624       6.518424
                                                         6.739673       7.358850
                                                        34.417212     302.926287
                          1      10    3dz2              0.040000       0.000000
                                                         0.097098       0.001415
                                                         0.283960       0.015501
                                                         0.806764       0.546922
                                                         2.441624       3.763414
                                                         6.739673       4.248634
                                                        34.417212     174.894573

                          1      11    4dx2              0.040000       0.000000
                                                         0.097098       0.001225
                                                         0.283960       0.139703
                                                         0.806764       0.323683
                                                         2.441624      -2.510108
                                                         6.739673      -4.401044
                                                        34.417212    -164.169372
                          1      11    4dxy              0.040000       0.000000
                                                         0.097098       0.002122
                                                         0.283960       0.241972
                                                         0.806764       0.560636
                                                         2.441624      -4.347634
                                                         6.739673      -7.622831
                                                        34.417212    -284.349694
                          1      11    4dxz              0.040000       0.000000
                                                         0.097098       0.002122
                                                         0.283960       0.241972
                                                         0.806764       0.560636
                                                         2.441624      -4.347634
                                                         6.739673      -7.622831
                                                        34.417212    -284.349694
                          1      11    4dy2              0.040000       0.000000
                                                         0.097098       0.001225
                                                         0.283960       0.139703
                                                         0.806764       0.323683
                                                         2.441624      -2.510108
                                                         6.739673      -4.401044
                                                        34.417212    -164.169372
                          1      11    4dyz              0.040000       0.000000
                                                         0.097098       0.002122
                                                         0.283960       0.241972
                                                         0.806764       0.560636
                                                         2.441624      -4.347634
                                                         6.739673      -7.622831
                                                        34.417212    -284.349694
                          1      11    4dz2              0.040000       0.000000
                                                         0.097098       0.001225
                                                         0.283960       0.139703
                                                         0.806764       0.323683
                                                         2.441624      -2.510108
                                                         6.739673      -4.401044
                                                        34.417212    -164.169372

                          1      12    5dx2              0.040000       0.006049
                                                         0.097098      -0.003128
                                                         0.283960       0.033814
                                                         0.806764       0.003338
                                                         2.441624       0.000000
                                                         6.739673       0.000000
                                                        34.417212       0.000000
                          1      12    5dxy              0.040000       0.010477
                                                         0.097098      -0.005418
                                                         0.283960       0.058567
                                                         0.806764       0.005781
                                                         2.441624       0.000000
                                                         6.739673       0.000000
                                                        34.417212       0.000000
                          1      12    5dxz              0.040000       0.010477
                                                         0.097098      -0.005418
                                                         0.283960       0.058567
                                                         0.806764       0.005781
                                                         2.441624       0.000000
                                                         6.739673       0.000000
                                                        34.417212       0.000000
                          1      12    5dy2              0.040000       0.006049
                                                         0.097098      -0.003128
                                                         0.283960       0.033814
                                                         0.806764       0.003338
                                                         2.441624       0.000000
                                                         6.739673       0.000000
                                                        34.417212       0.000000
                          1      12    5dyz              0.040000       0.010477
                                                         0.097098      -0.005418
                                                         0.283960       0.058567
                                                         0.806764       0.005781
                                                         2.441624       0.000000
                                                         6.739673       0.000000
                                                        34.417212       0.000000
                          1      12    5dz2              0.040000       0.006049
                                                         0.097098      -0.003128
                                                         0.283960       0.033814
                                                         0.806764       0.003338
                                                         2.441624       0.000000
                                                         6.739673       0.000000
                                                        34.417212       0.000000

                          1      13    4fx3              0.040000       0.000000
                                                         0.097098      -0.000799
                                                         0.283960       0.042127
                                                         0.806764       0.576468
                                                         2.441624       1.033755
                                                         6.739673      -2.026957
                                                        34.417212      49.427593
                          1      13    4fx2y             0.040000       0.000000
                                                         0.097098      -0.001786
                                                         0.283960       0.094199
                                                         0.806764       1.289022
                                                         2.441624       2.311546
                                                         6.739673      -4.532415
                                                        34.417212     110.523457
                          1      13    4fx2z             0.040000       0.000000
                                                         0.097098      -0.001786
                                                         0.283960       0.094199
                                                         0.806764       1.289022
                                                         2.441624       2.311546
                                                         6.739673      -4.532415
                                                        34.417212     110.523457
                          1      13    4fxy2             0.040000       0.000000
                                                         0.097098      -0.001786
                                                         0.283960       0.094199
                                                         0.806764       1.289022
                                                         2.441624       2.311546
                                                         6.739673      -4.532415
                                                        34.417212     110.523457
                          1      13    4fxyz             0.040000       0.000000
                                                         0.097098      -0.003093
                                                         0.283960       0.163158
                                                         0.806764       2.232651
                                                         2.441624       4.003716
                                                         6.739673      -7.850372
                                                        34.417212     191.432243
                          1      13    4fxz2             0.040000       0.000000
                                                         0.097098      -0.001786
                                                         0.283960       0.094199
                                                         0.806764       1.289022
                                                         2.441624       2.311546
                                                         6.739673      -4.532415
                                                        34.417212     110.523457
                          1      13    4fy3              0.040000       0.000000
                                                         0.097098      -0.000799
                                                         0.283960       0.042127
                                                         0.806764       0.576468
                                                         2.441624       1.033755
                                                         6.739673      -2.026957
                                                        34.417212      49.427593
                          1      13    4fy2z             0.040000       0.000000
                                                         0.097098      -0.001786
                                                         0.283960       0.094199
                                                         0.806764       1.289022
                                                         2.441624       2.311546
                                                         6.739673      -4.532415
                                                        34.417212     110.523457
                          1      13    4fyz2             0.040000       0.000000
                                                         0.097098      -0.001786
                                                         0.283960       0.094199
                                                         0.806764       1.289022
                                                         2.441624       2.311546
                                                         6.739673      -4.532415
                                                        34.417212     110.523457
                          1      13    4fz3              0.040000       0.000000
                                                         0.097098      -0.000799
                                                         0.283960       0.042127
                                                         0.806764       0.576468
                                                         2.441624       1.033755
                                                         6.739673      -2.026957
                                                        34.417212      49.427593

                          1      14    5fx3              0.040000       0.000092
                                                         0.097098       0.001511
                                                         0.283960      -0.094589
                                                         0.806764       0.000869
                                                         2.441624       0.000000
                                                         6.739673       0.000000
                                                        34.417212       0.000000
                          1      14    5fx2y             0.040000       0.000206
                                                         0.097098       0.003380
                                                         0.283960      -0.211507
                                                         0.806764       0.001943
                                                         2.441624       0.000000
                                                         6.739673       0.000000
                                                        34.417212       0.000000
                          1      14    5fx2z             0.040000       0.000206
                                                         0.097098       0.003380
                                                         0.283960      -0.211507
                                                         0.806764       0.001943
                                                         2.441624       0.000000
                                                         6.739673       0.000000
                                                        34.417212       0.000000
                          1      14    5fxy2             0.040000       0.000206
                                                         0.097098       0.003380
                                                         0.283960      -0.211507
                                                         0.806764       0.001943
                                                         2.441624       0.000000
                                                         6.739673       0.000000
                                                        34.417212       0.000000
                          1      14    5fxyz             0.040000       0.000357
                                                         0.097098       0.005854
                                                         0.283960      -0.366341
                                                         0.806764       0.003365
                                                         2.441624       0.000000
                                                         6.739673       0.000000
                                                        34.417212       0.000000
                          1      14    5fxz2             0.040000       0.000206
                                                         0.097098       0.003380
                                                         0.283960      -0.211507
                                                         0.806764       0.001943
                                                         2.441624       0.000000
                                                         6.739673       0.000000
                                                        34.417212       0.000000
                          1      14    5fy3              0.040000       0.000092
                                                         0.097098       0.001511
                                                         0.283960      -0.094589
                                                         0.806764       0.000869
                                                         2.441624       0.000000
                                                         6.739673       0.000000
                                                        34.417212       0.000000
                          1      14    5fy2z             0.040000       0.000206
                                                         0.097098       0.003380
                                                         0.283960      -0.211507
                                                         0.806764       0.001943
                                                         2.441624       0.000000
                                                         6.739673       0.000000
                                                        34.417212       0.000000
                          1      14    5fyz2             0.040000       0.000206
                                                         0.097098       0.003380
                                                         0.283960      -0.211507
                                                         0.806764       0.001943
                                                         2.441624       0.000000
                                                         6.739673       0.000000
                                                        34.417212       0.000000
                          1      14    5fz3              0.040000       0.000092
                                                         0.097098       0.001511
                                                         0.283960      -0.094589
                                                         0.806764       0.000869
                                                         2.441624       0.000000
                                                         6.739673       0.000000
                                                        34.417212       0.000000

                          1      15    5gx4              0.040000       0.000014
                                                         0.097098       0.001608
                                                         0.283960       0.004604
                                                         0.806764      -0.003474
                                                         2.441624       0.000000
                                                         6.739673       0.000000
                                                        34.417212       0.000000
                          1      15    5gx3y             0.040000       0.000036
                                                         0.097098       0.004255
                                                         0.283960       0.012180
                                                         0.806764      -0.009191
                                                         2.441624       0.000000
                                                         6.739673       0.000000
                                                        34.417212       0.000000
                          1      15    5gx3z             0.040000       0.000036
                                                         0.097098       0.004255
                                                         0.283960       0.012180
                                                         0.806764      -0.009191
                                                         2.441624       0.000000
                                                         6.739673       0.000000
                                                        34.417212       0.000000
                          1      15    5gx2y2            0.040000       0.000046
                                                         0.097098       0.005493
                                                         0.283960       0.015725
                                                         0.806764      -0.011865
                                                         2.441624       0.000000
                                                         6.739673       0.000000
                                                        34.417212       0.000000
                          1      15    5gx2yz            0.040000       0.000080
                                                         0.097098       0.009514
                                                         0.283960       0.027236
                                                         0.806764      -0.020551
                                                         2.441624       0.000000
                                                         6.739673       0.000000
                                                        34.417212       0.000000
                          1      15    5gx2z2            0.040000       0.000046
                                                         0.097098       0.005493
                                                         0.283960       0.015725
                                                         0.806764      -0.011865
                                                         2.441624       0.000000
                                                         6.739673       0.000000
                                                        34.417212       0.000000
                          1      15    5gxy3             0.040000       0.000036
                                                         0.097098       0.004255
                                                         0.283960       0.012180
                                                         0.806764      -0.009191
                                                         2.441624       0.000000
                                                         6.739673       0.000000
                                                        34.417212       0.000000
                          1      15    5gxy2z            0.040000       0.000080
                                                         0.097098       0.009514
                                                         0.283960       0.027236
                                                         0.806764      -0.020551
                                                         2.441624       0.000000
                                                         6.739673       0.000000
                                                        34.417212       0.000000
                          1      15    5gxyz2            0.040000       0.000080
                                                         0.097098       0.009514
                                                         0.283960       0.027236
                                                         0.806764      -0.020551
                                                         2.441624       0.000000
                                                         6.739673       0.000000
                                                        34.417212       0.000000
                          1      15    5gxz3             0.040000       0.000036
                                                         0.097098       0.004255
                                                         0.283960       0.012180
                                                         0.806764      -0.009191
                                                         2.441624       0.000000
                                                         6.739673       0.000000
                                                        34.417212       0.000000
                          1      15    5gy4              0.040000       0.000014
                                                         0.097098       0.001608
                                                         0.283960       0.004604
                                                         0.806764      -0.003474
                                                         2.441624       0.000000
                                                         6.739673       0.000000
                                                        34.417212       0.000000
                          1      15    5gy3z             0.040000       0.000036
                                                         0.097098       0.004255
                                                         0.283960       0.012180
                                                         0.806764      -0.009191
                                                         2.441624       0.000000
                                                         6.739673       0.000000
                                                        34.417212       0.000000
                          1      15    5gy2z2            0.040000       0.000046
                                                         0.097098       0.005493
                                                         0.283960       0.015725
                                                         0.806764      -0.011865
                                                         2.441624       0.000000
                                                         6.739673       0.000000
                                                        34.417212       0.000000
                          1      15    5gyz3             0.040000       0.000036
                                                         0.097098       0.004255
                                                         0.283960       0.012180
                                                         0.806764      -0.009191
                                                         2.441624       0.000000
                                                         6.739673       0.000000
                                                        34.417212       0.000000
                          1      15    5gz4              0.040000       0.000014
                                                         0.097098       0.001608
                                                         0.283960       0.004604
                                                         0.806764      -0.003474
                                                         2.441624       0.000000
                                                         6.739673       0.000000
                                                        34.417212       0.000000

                          2       1    1s            13575.369584       0.323227
                                                      2035.237517       2.062509
                                                       463.111112       2.210797
                                                       131.318553       4.954487
                                                        42.899593       1.730189
                                                        15.855102       4.257999

     RI Auxiliary Basis Set             RI_aug-TZVP-MOLOPT-ae_N_RI_073_s_p_d_f_g

       Number of orbital shell sets:                                          19
       Number of orbital shells:                                              19
       Number of primitive Cartesian functions:                               19
       Number of Cartesian basis functions:                                   97
       Number of spherical basis functions:                                   73
       Norm type:                                                              2

       Normalised Cartesian orbitals:

                        Set   Shell   Orbital            Exponent    Coefficient

                          1       1    1s                0.091816       0.118877

                          2       1    2s                0.287175       0.279589

                          3       1    8px               0.391455       0.441359
                          3       1    8py               0.391455       0.441359
                          3       1    8pz               0.391455       0.441359

                          4       1   12dx2              0.453199       0.412017
                          4       1   12dxy              0.453199       0.713635
                          4       1   12dxz              0.453199       0.713635
                          4       1   12dy2              0.453199       0.412017
                          4       1   12dyz              0.453199       0.713635
                          4       1   12dz2              0.453199       0.412017

                          5       1   15fx3              0.493596       0.300635
                          5       1   15fx2y             0.493596       0.672241
                          5       1   15fx2z             0.493596       0.672241
                          5       1   15fxy2             0.493596       0.672241
                          5       1   15fxyz             0.493596       1.164356
                          5       1   15fxz2             0.493596       0.672241
                          5       1   15fy3              0.493596       0.300635
                          5       1   15fy2z             0.493596       0.672241
                          5       1   15fyz2             0.493596       0.672241
                          5       1   15fz3              0.493596       0.300635

                          6       1   18gx4              0.552678       0.217888
                          6       1   18gx3y             0.552678       0.576478
                          6       1   18gx3z             0.552678       0.576478
                          6       1   18gx2y2            0.552678       0.744230
                          6       1   18gx2yz            0.552678       1.289044
                          6       1   18gx2z2            0.552678       0.744230
                          6       1   18gxy3             0.552678       0.576478
                          6       1   18gxy2z            0.552678       1.289044
                          6       1   18gxyz2            0.552678       1.289044
                          6       1   18gxz3             0.552678       0.576478
                          6       1   18gy4              0.552678       0.217888
                          6       1   18gy3z             0.552678       0.576478
                          6       1   18gy2z2            0.552678       0.744230
                          6       1   18gyz3             0.552678       0.576478
                          6       1   18gz4              0.552678       0.217888

                          7       1    9px               0.792647       1.066080
                          7       1    9py               0.792647       1.066080
                          7       1    9pz               0.792647       1.066080

                          8       1    3s                0.811053       0.609112

                          9       1   13dx2              1.050831       1.795115
                          9       1   13dxy              1.050831       3.109231
                          9       1   13dxz              1.050831       3.109231
                          9       1   13dy2              1.050831       1.795115
                          9       1   13dyz              1.050831       3.109231
                          9       1   13dz2              1.050831       1.795115

                         10       1   16fx3              1.094417       1.803497
                         10       1   16fx2y             1.094417       4.032742
                         10       1   16fx2z             1.094417       4.032742
                         10       1   16fxy2             1.094417       4.032742
                         10       1   16fxyz             1.094417       6.984914
                         10       1   16fxz2             1.094417       4.032742
                         10       1   16fy3              1.094417       1.803497
                         10       1   16fy2z             1.094417       4.032742
                         10       1   16fyz2             1.094417       4.032742
                         10       1   16fz3              1.094417       1.803497

                         11       1   19gx4              1.617251       4.174201
                         11       1   19gx3y             1.617251      11.043898
                         11       1   19gx3z             1.617251      11.043898
                         11       1   19gx2y2            1.617251      14.257611
                         11       1   19gx2yz            1.617251      24.694907
                         11       1   19gx2z2            1.617251      14.257611
                         11       1   19gxy3             1.617251      11.043898
                         11       1   19gxy2z            1.617251      24.694907
                         11       1   19gxyz2            1.617251      24.694907
                         11       1   19gxz3             1.617251      11.043898
                         11       1   19gy4              1.617251       4.174201
                         11       1   19gy3z             1.617251      11.043898
                         11       1   19gy2z2            1.617251      14.257611
                         11       1   19gyz3             1.617251      11.043898
                         11       1   19gz4              1.617251       4.174201

                         12       1   17fx3              2.247970       9.109259
                         12       1   17fx2y             2.247970      20.368923
                         12       1   17fx2z             2.247970      20.368923
                         12       1   17fxy2             2.247970      20.368923
                         12       1   17fxyz             2.247970      35.280010
                         12       1   17fxz2             2.247970      20.368923
                         12       1   17fy3              2.247970       9.109259
                         12       1   17fy2z             2.247970      20.368923
                         12       1   17fyz2             2.247970      20.368923
                         12       1   17fz3              2.247970       9.109259

                         13       1    4s                2.631051       1.472336

                         14       1   10px               2.735736       5.015136
                         14       1   10py               2.735736       5.015136
                         14       1   10pz               2.735736       5.015136

                         15       1   14dx2              3.531424      14.973444
                         15       1   14dxy              3.531424      25.934767
                         15       1   14dxz              3.531424      25.934767
                         15       1   14dy2              3.531424      14.973444
                         15       1   14dyz              3.531424      25.934767
                         15       1   14dz2              3.531424      14.973444

                         16       1    5s                8.634213       3.589857

                         17       1   11px              14.132879      39.059653
                         17       1   11py              14.132879      39.059653
                         17       1   11pz              14.132879      39.059653

                         18       1    6s               27.135268       8.473458

                         19       1    7s               81.848125      19.393967

       Atomic covalent radius [Angstrom]:                                  0.770

       Atomic van der Waals radius [Angstrom]:                             1.700

     The atoms of this atomic kind are PAW atoms (GAPW):
       Hard Gaussian function radius:                                      1.512
       Rho0 radius:                                                        1.512
       Maximum GTO radius used for PAW projector construction:            24.566

     GAPW Soft Basis Set                                 aug-TZVP-MOLOPT-ae_soft

       Number of orbital shell sets:                                           2
       Number of orbital shells:                                              16
       Number of primitive Cartesian functions:                                5
       Number of Cartesian basis functions:                                   71
       Number of spherical basis functions:                                   56
       Norm type:                                                              2

       Normalised Cartesian orbitals:

                        Set   Shell   Orbital            Exponent    Coefficient

                          1       1    1s                0.040000       0.000000
                                                         0.097098       0.019281
                                                         0.283960       0.027513
                                                         0.806764       0.003692
                                                         2.441624       0.446183

                          1       2    2s                0.040000       0.000000
                                                         0.097098       0.029117
                                                         0.283960       0.094997
                                                         0.806764       0.362633
                                                         2.441624      -0.104551

                          1       3    3s                0.040000       0.000000
                                                         0.097098       0.047046
                                                         0.283960       0.169545
                                                         0.806764      -0.252838
                                                         2.441624      -0.199197

                          1       4    4s                0.040000       0.000000
                                                         0.097098       0.188374
                                                         0.283960      -0.341415
                                                         0.806764       0.091223
                                                         2.441624      -0.053941

                          1       5    5s                0.040000       0.099533
                                                         0.097098      -0.167672
                                                         0.283960      -0.126383
                                                         0.806764       0.030074
                                                         2.441624       0.000000

                          1       6    2px               0.040000       0.000000
                                                         0.097098       0.005087
                                                         0.283960       0.032186
                                                         0.806764       0.779023
                                                         2.441624       0.695625
                          1       6    2py               0.040000       0.000000
                                                         0.097098       0.005087
                                                         0.283960       0.032186
                                                         0.806764       0.779023
                                                         2.441624       0.695625
                          1       6    2pz               0.040000       0.000000
                                                         0.097098       0.005087
                                                         0.283960       0.032186
                                                         0.806764       0.779023
                                                         2.441624       0.695625

                          1       7    3px               0.040000       0.000000
                                                         0.097098       0.008084
                                                         0.283960       0.294367
                                                         0.806764      -0.188640
                                                         2.441624       0.912249
                          1       7    3py               0.040000       0.000000
                                                         0.097098       0.008084
                                                         0.283960       0.294367
                                                         0.806764      -0.188640
                                                         2.441624       0.912249
                          1       7    3pz               0.040000       0.000000
                                                         0.097098       0.008084
                                                         0.283960       0.294367
                                                         0.806764      -0.188640
                                                         2.441624       0.912249

                          1       8    4px               0.040000       0.000000
                                                         0.097098       0.081068
                                                         0.283960      -0.017243
                                                         0.806764      -0.070055
                                                         2.441624      -0.855991
                          1       8    4py               0.040000       0.000000
                                                         0.097098       0.081068
                                                         0.283960      -0.017243
                                                         0.806764      -0.070055
                                                         2.441624      -0.855991
                          1       8    4pz               0.040000       0.000000
                                                         0.097098       0.081068
                                                         0.283960      -0.017243
                                                         0.806764      -0.070055
                                                         2.441624      -0.855991

                          1       9    5px               0.040000       0.032085
                                                         0.097098      -0.027366
                                                         0.283960      -0.100343
                                                         0.806764      -0.020266
                                                         2.441624       0.000000
                          1       9    5py               0.040000       0.032085
                                                         0.097098      -0.027366
                                                         0.283960      -0.100343
                                                         0.806764      -0.020266
                                                         2.441624       0.000000
                          1       9    5pz               0.040000       0.032085
                                                         0.097098      -0.027366
                                                         0.283960      -0.100343
                                                         0.806764      -0.020266
                                                         2.441624       0.000000

                          1      10    3dx2              0.040000       0.000000
                                                         0.097098       0.001415
                                                         0.283960       0.015501
                                                         0.806764       0.546922
                                                         2.441624       3.763414
                          1      10    3dxy              0.040000       0.000000
                                                         0.097098       0.002451
                                                         0.283960       0.026849
                                                         0.806764       0.947296
                                                         2.441624       6.518424
                          1      10    3dxz              0.040000       0.000000
                                                         0.097098       0.002451
                                                         0.283960       0.026849
                                                         0.806764       0.947296
                                                         2.441624       6.518424
                          1      10    3dy2              0.040000       0.000000
                                                         0.097098       0.001415
                                                         0.283960       0.015501
                                                         0.806764       0.546922
                                                         2.441624       3.763414
                          1      10    3dyz              0.040000       0.000000
                                                         0.097098       0.002451
                                                         0.283960       0.026849
                                                         0.806764       0.947296
                                                         2.441624       6.518424
                          1      10    3dz2              0.040000       0.000000
                                                         0.097098       0.001415
                                                         0.283960       0.015501
                                                         0.806764       0.546922
                                                         2.441624       3.763414

                          1      11    4dx2              0.040000       0.000000
                                                         0.097098       0.001225
                                                         0.283960       0.139703
                                                         0.806764       0.323683
                                                         2.441624      -2.510108
                          1      11    4dxy              0.040000       0.000000
                                                         0.097098       0.002122
                                                         0.283960       0.241972
                                                         0.806764       0.560636
                                                         2.441624      -4.347634
                          1      11    4dxz              0.040000       0.000000
                                                         0.097098       0.002122
                                                         0.283960       0.241972
                                                         0.806764       0.560636
                                                         2.441624      -4.347634
                          1      11    4dy2              0.040000       0.000000
                                                         0.097098       0.001225
                                                         0.283960       0.139703
                                                         0.806764       0.323683
                                                         2.441624      -2.510108
                          1      11    4dyz              0.040000       0.000000
                                                         0.097098       0.002122
                                                         0.283960       0.241972
                                                         0.806764       0.560636
                                                         2.441624      -4.347634
                          1      11    4dz2              0.040000       0.000000
                                                         0.097098       0.001225
                                                         0.283960       0.139703
                                                         0.806764       0.323683
                                                         2.441624      -2.510108

                          1      12    5dx2              0.040000       0.006049
                                                         0.097098      -0.003128
                                                         0.283960       0.033814
                                                         0.806764       0.003338
                                                         2.441624       0.000000
                          1      12    5dxy              0.040000       0.010477
                                                         0.097098      -0.005418
                                                         0.283960       0.058567
                                                         0.806764       0.005781
                                                         2.441624       0.000000
                          1      12    5dxz              0.040000       0.010477
                                                         0.097098      -0.005418
                                                         0.283960       0.058567
                                                         0.806764       0.005781
                                                         2.441624       0.000000
                          1      12    5dy2              0.040000       0.006049
                                                         0.097098      -0.003128
                                                         0.283960       0.033814
                                                         0.806764       0.003338
                                                         2.441624       0.000000
                          1      12    5dyz              0.040000       0.010477
                                                         0.097098      -0.005418
[...]
 MP_Allreduce        99403                  81253.
 MP_Sync              3112
 MP_Alltoall         10162               12627729.
 MP_SendRecv        128734                  69520.
 MP_ISendRecv       355642                  93873.
 MP_Wait            480556
 MP_comm_split         100
 MP_ISend           111606                 404127.
 MP_IRecv           115502                 390489.
 -------------------------------------------------------------------------------


 -------------------------------------------------------------------------------
 -                                                                             -
 -                           R E F E R E N C E S                               -
 -                                                                             -
 -------------------------------------------------------------------------------
 
 CP2K version 2025.1 (Development Version), the CP2K developers group (2025).
 CP2K is freely available from https://www.cp2k.org/ .
 
 T. D. Kuehne, M. Iannuzzi, M. Del Ben, V. V. Rybkin, P. Seewald, F. Stein, T. 
 Laino, R. Z. Khaliullin, O. Schuett, F. Schiffmann, D. Golze, J. Wilhelm, S. 
 Chulkov, M. H. Bani-Hashemian, V. Weber, U. Borstnik, M. Taillefumier, A. S. 
 Jakobovits, A. Lazzaro, H. Pabst, T. Mueller, R. Schade, M. Guidon, S. 
 Andermatt, N. Holmberg, G. K. Schenter, A. Hehn, A. Bussy, F. Belleflamme, G. 
 Tabacchi, A. Gloess, M. Lass, I. Bethune, C. J. Mundy, C. Plessl, M. Watkins, 
 J. VandeVondele, M. Krack, J. Hutter.
 J. Chem. Phys. 152, 194103 (2020).
 CP2K: An electronic structure and molecular dynamics software package - 
 Quickstep: Efficient and accurate electronic structure calculations.
 https://doi.org/10.1063/5.0007045

 O. Schuett, P. Messmer, J. Hutter, J. VandeVondele.
 Electronic Structure Calculations on Graphics Processing Units, 173-190 (2016).
 GPU-Accelerated Sparse Matrix-Matrix Multiplication for Linear Scaling Density 
 Functional Theory.
 https://doi.org/10.1002/9781118670712.ch8

 A. Heinecke, G. Henry, M. Hutchinson, H. Pabst.
 Proceedings of Intl. Supercomputing Conference, 981-991 (2016).
 LIBXSMM: Accelerating Small Matrix Multiplications by Runtime Code Generation.
 https://doi.org/10.1109/SC.2016.83

 J. Hutter, M. Iannuzzi, F. Schiffmann, J. VandeVondele.
 WIREs Comput Mol Sci. 4, 15-25 (2014).
 CP2K: atomistic simulations of condensed matter systems.
 https://doi.org/10.1002/wcms.1159

 U. Borstnik, J. VandeVondele, V. Weber, J. Hutter.
 Parallel Comput. 40, 47-58 (2014).
 Sparse matrix multiplication: The distributed block-compressed sparse row 
 library.
 https://doi.org/10.1016/j.parco.2014.03.012

 A. Marek, V. Blum, R. Johanni, V. Havu, B. Lang, T. Auckenthaler, A. Heinecke, 
 H. Bungartz, H. Lederer.
 J. Phys. Condens. Matter 26, 213201 (2014).
 The ELPA library: scalable parallel eigenvalue solutions for electronic 
 structure theory and computational science.
 https://doi.org/10.1088/0953-8984/26/21/213201

 M. Guidon, J. Hutter, J. VandeVondele.
 J. Chem. Theory Comput. 5, 3010-3021 (2009).
 Robust Periodic Hartree-Fock Exchange for Large-Scale Simulations Using 
 Gaussian Basis Sets.
 https://doi.org/10.1021/ct900494g

 M. Guidon, F. Schiffmann, J. Hutter, J. VandeVondele.
 J. Chem. Phys. 128, 214104 (2008).
 Ab initio molecular dynamics using hybrid density functionals.
 https://doi.org/10.1063/1.2931945

 L. Genovese, T. Deutsch, S. Goedecker.
 J. Chem. Phys. 127, 054704 (2007).
 Efficient and accurate three-dimensional Poisson solver for surface problems.
 https://doi.org/10.1063/1.2754685

 J. VandeVondele, J. Hutter.
 J. Chem. Phys. 127, 114105 (2007).
 Gaussian basis sets for accurate calculations on molecular systems in gas and 
 condensed phases.
 https://doi.org/10.1063/1.2770708

 L. Genovese, T. Deutsch, A. Neelov, S. Goedecker, G. Beylkin.
 J. Chem. Phys. 125, 074105 (2006).
 Efficient solution of Poisson's equation with free boundary conditions.
 https://doi.org/10.1063/1.2335442

 M. Iannuzzi, T. Chassaing, T. Wallman, J. Hutter.
 CHIMIA 59, 499-503 (2005).
 Ground and excited state density functional calculations with the Gaussian and 
 augmented-plane-wave method.
 https://doi.org/10.2533/000942905777676164

 M. Frigo, S. G. Johnson.
 Proc. IEEE 93, 216-231 (2005).
 The design and implementation of FFTW3.
 https://doi.org/10.1109/JPROC.2004.840301

 R. L. Martin.
 J. Chem. Phys. 118, 4775-4777 (2003).
 Natural transition orbitals.
 https://doi.org/10.1063/1.1558471

 M. Krack, M. Parrinello.
 Phys. Chem. Chem. Phys. 2, 2105-2112 (2000).
 All-electron ab-initio molecular dynamics.
 https://doi.org/10.1039/b001167n

 G. Lippert, J. Hutter, M. Parrinello.
 Theor. Chem. Acc. 103, 124-140 (1999).
 The Gaussian and augmented-plane-wave density functional method for ab initio 
 molecular dynamics simulations.
 https://doi.org/10.1007/s002140050523

 J. P. Perdew, K. Burke, M. Ernzerhof.
 Phys. Rev. Lett. 77, 3865-3868 (1996).
 Generalized gradient approximation made simple.
 https://doi.org/10.1103/PhysRevLett.77.3865


 -------------------------------------------------------------------------------
 -                                                                             -
 -                                T I M I N G                                  -
 -                                                                             -
 -------------------------------------------------------------------------------
 SUBROUTINE                       CALLS  ASD         SELF TIME        TOTAL TIME
                                MAXIMUM       AVERAGE  MAXIMUM  AVERAGE  MAXIMUM
 CP2K                                 1  1.0    0.034    0.084 4127.018 4127.036
 qs_energies                          1  2.0    0.001    0.005 4126.578 4126.595
 integrate_four_center              595  9.9   94.770  113.969 3523.142 3523.303
 integrate_four_center_main         595 10.9   48.925  203.833 2883.200 3356.971
 integrate_four_center_bin       110854 11.9 2834.275 3327.408 2834.275 3327.408
 scf_env_do_scf                       1  3.0    0.000    0.002 2626.844 2626.854
 scf_env_do_scf_inner_loop           75  4.0    0.002    0.004 2626.844 2626.854
 qs_ks_update_qs_env                 75  5.0    0.001    0.001 2585.748 2586.077
 rebuild_ks_matrix                   75  6.0    0.000    0.000 2585.737 2586.065
 qs_ks_build_kohn_sham_matrix        75  7.0    0.011    0.015 2585.736 2586.065
 hfx_ks_matrix                       75  8.0    0.002    0.003 2488.222 2488.255
 qs_energies_properties               1  3.0    0.000    0.000 1496.737 1496.744
 tddfpt                               1  4.0    0.000    0.000 1496.737 1496.744
 tddfpt_energies                      1  5.0    0.001    0.016 1496.591 1496.598
 tddfpt_davidson_solver               1  6.0    0.001    0.002 1493.309 1493.315
 tddfpt_compute_Aop_evects           13  7.0    0.000    0.000 1488.652 1488.658
 tddfpt_apply_hfx                    13  8.0    0.003    0.004 1047.113 1047.118
 tddft_hfx_matrix                   520  9.0    0.007    0.012 1034.934 1035.078
 mp_sync                           3112 11.6  510.854  885.872  510.854  885.872
 fhxc_kernel                         13  8.0    0.012    0.023  440.592  440.595
 fft_wrap_pw1pw2                   6789 11.2    0.134    0.173  206.508  216.230
 fft_wrap_pw1pw2_250               4773 12.2    3.782    5.027  197.045  211.891
 fft3d_ps                          6789 13.2   23.737   33.311  191.319  200.082
 mp_alltoall_z22v                  6789 15.2  159.766  167.896  159.766  167.896
 tddfpt_apply_coulomb               260  9.0    0.004    0.006  141.386  146.287
 qs_rho_update_rho_low              337  8.1    0.004    0.006  130.169  130.214
 pw_poisson_solve                   335  9.6    1.661    2.124  124.591  129.563
 calculate_rho_elec                 337  9.1    0.442    0.627  104.031  104.061
 x_to_yz                           2759 13.8    3.078    5.067   98.746  102.488
 prepare_gapw_den                   336  8.8    0.006    0.007   90.023   92.517
 yz_to_x                           2686 14.6    2.339    2.636   66.232   72.576
 xc_pw_derive                      2013 11.0    0.016    0.019   67.869   69.582
 density_rs2pw                      337 10.1    0.014    0.017   61.057   66.441
 tddfpt_apply_xc_analytic           260  9.0    0.411    0.571   64.555   65.908
 integrate_v_rspace                 335  9.0    0.008    0.010   62.308   65.789
 potential_pw2rs                    335 10.0    0.035    0.044   58.969   59.193
 transfer_pw2rs                    1676 10.9    0.033    0.041   57.299   58.915
 calculate_rho_atom                 672  9.8    5.544   57.079    5.544   57.079
 mp_sum_dv                        64460  8.8   51.339   55.593   51.339   55.593
 mp_waitany                      111606 12.9   44.542   54.292   44.542   54.292
 ps_wavelet_solve                   335 10.6   20.035   27.224   48.247   49.544
 xc_pw_divergence                   335 10.8    0.007    0.008   45.062   46.294
 grid_collocate_task_list           337 10.1   39.689   45.987   39.689   45.987
 gaVxcgb_GC                         670  9.8    1.824   44.099    1.824   44.099
 transfer_rs2pw                    1685 11.0    0.041    0.064   39.318   43.835
 mp_sum_d                         17843  7.3   24.480   41.517   24.480   41.517
 xc_calc_2nd_deriv_analytical      1300 10.1    1.853    2.273   37.859   38.654
 calculate_xc_2nd_deriv_atom        260  9.0    0.143    2.250    1.618   37.007
 mp_waitall_1                    681998 13.3   30.866   36.848   30.866   36.848
 transfer_pw2rs_250                 671 11.8    6.854    7.368   33.614   35.981
 mp_sum_dm                        16268 10.2   33.702   35.512   33.702   35.512
 mp_alltoall_d54                    335 11.6   14.454   31.269   14.454   31.269
 integrate_vhg0_rspace              335  9.6    2.538    2.769   30.259   31.148
 put_rho0_on_grid                   336  9.8    0.492    0.744   28.215   30.692
 transfer_rs2pw_250                 674 11.9    7.123    7.915   24.447   28.439
 calculate_rho_atom_coeff           337  9.1    1.571    2.408   26.134   26.160
 qs_vxc_create                       75  8.0    0.001    0.002   20.856   20.856
 xc_vxc_pw_create                    75  9.0    0.158    0.227   20.855   20.856
 calc_screening_functions             1 10.0   19.609   20.182   19.874   20.459
 mp_alltoall_d45                    336 11.6   15.452   19.944   15.452   19.944
 mp_alltoall_d11v                 22300 11.7   12.982   18.305   12.982   18.305
 transfer_pw2rs_90                  335 12.0    1.230    1.505   14.026   17.757
 cp_dbcsr_sm_fm_multiply           1606  8.6    0.020    0.026   15.976   16.730
 mp_isend_dm3                     14790 12.9   10.678   16.304   10.678   16.304
 fft_wrap_pw1pw2_90                 672 12.0    0.131    0.238    7.430   14.949
 dbcsr_multiply_generic            2201 10.4    0.055    0.064   10.818   13.253
 integrate_four_center_getP         595 10.9    0.745    0.964   10.813   12.876
 cp_dbcsr_sm_fm_multiply_core      1606  9.6    0.003    0.003    9.880   12.278
 sum_up_and_integrate                75  8.0    0.001    0.003   11.328   12.123
 Vh_1c_gg_integrals                 335  9.6    0.185    3.871    6.093   11.816
 mp_alltoall_i22                   6986 11.5    5.490   11.760    5.490   11.760
 multiply_cannon                   2201 11.4    0.132    0.155    8.936   11.493
 xc_rho_set_and_dset_create          76 10.0    0.197    0.269    9.770   11.035
 calculate_vxc_atom                  75  8.0    0.029    0.323   10.216   10.218
 update_ks_atom                     335  8.8    0.949    2.378    7.973   10.083
 copy_dbcsr_to_fm                  1703  9.4    0.013    0.014    4.303    9.930
 mp_bcast_dm                      10720  9.8    7.025    9.776    7.025    9.776
 transfer_pw2rs_30                  335 12.0    1.462    1.637    8.275    9.772
 transfer_rs2pw_90                  337 12.1    1.555    1.798    8.647    9.729
 cp2k_distribution_to_z_slices      335 10.6    1.392    1.593    8.936    9.682
 multiply_cannon_loop              2201 12.4    0.144    0.156    6.863    9.307
 dbcsr_desymmetrize_deep           1704 10.4    0.025    0.039    3.161    8.766
 multiply_cannon_metrocomm3       52824 13.4    0.075    0.081    4.267    8.685
 pw_integral_ab_c1d_c1d_gs          335 10.6    0.915    1.090    3.416    7.517
 multiply_cannon_metrocomm1       52824 13.4    0.029    0.031    2.016    7.189
 calculate_rho0_atom                672  9.8    6.529    7.150    6.529    7.150
 gspace_mixing                       74  5.0    0.097    0.137    6.786    6.797
 integrate_four_center_dist_KS      595 10.9    0.299    0.362    6.743    6.756
 grid_integrate_task_list           335 10.0    0.710    6.585    0.710    6.585
 rs_grid_zero                      1678 12.0    6.035    6.519    6.035    6.519
 rs_gather_matrices                 335 10.0    0.012    0.035    2.619    6.336
 qs_scf_new_mos                      75  5.0    0.001    0.002    5.743    5.880
 pw_derive                         3018 11.8    5.055    5.535    5.055    5.535
 cp_fm_diag_elpa                    130  7.2    0.000    0.000    5.466    5.486
 cp_fm_diag_elpa_base               130  8.3    3.179    5.120    3.200    5.156
 transfer_rs2pw_30                  337 12.1    1.879    2.072    4.796    5.134
 eigensolver_symm                    75  6.0    0.005    0.007    5.018    5.026
 parallel_gemm_fm                  2305  8.3    0.002    0.002    4.873    5.002
 parallel_gemm_fm_cosma            2305  9.3    4.871    5.000    4.871    5.000
 pw_copy                           4510 11.0    4.230    4.864    4.230    4.864
 dbcsr_complete_redistribute       5282 10.5    0.153    0.262    3.660    4.460
 pw_gather_p                       3360 13.5    3.607    4.289    3.607    4.289
 pw_scatter_p                      3429 12.9    3.599    4.136    3.599    4.136
 mp_sendrecv_dv                  128734 13.1    3.745    4.132    3.745    4.132
 mp_isend_dv                     202464 13.7    0.299    4.111    0.299    4.111
 cp_fm_redistribute_end             130  8.2    2.054    4.086    2.071    4.099
 multiply_cannon_metrocomm4       50623 13.4    0.079    0.090    0.198    3.978
 pw_copy_to_array                  3360 13.5    2.536    3.574    2.536    3.574
 copy_fm_to_dbcsr                  3577  9.6    0.010    0.011    2.655    3.567
 pw_poisson_set                     336 10.5    0.006    0.007    3.073    3.225
 broyden_mixing                      74  6.0    3.033    3.100    3.189    3.206
 make_m2s                          4402 11.4    0.041    0.043    0.986    2.717
 make_images                       4402 12.4    0.120    0.140    0.890    2.614
 mp_max_i                           806  5.8    1.232    2.509    1.232    2.509
 qs_energies_init_hamiltonians        1  3.0    0.001    0.006    2.327    2.329
 pw_axpy                           3618 10.9    1.938    2.318    1.938    2.318
 build_core_hamiltonian_matrix        1  4.0    0.000    0.003    2.312    2.312
 overlap_condnum                      1  5.0    0.001    0.003    2.284    2.312
 mp_isendrecv_dv                 355260 12.3    0.304    2.300    0.304    2.300
 pw_zero                           3836 10.6    1.882    2.295    1.882    2.295
 pw_poisson_rebuild                 335 10.6    0.000    0.001    2.144    2.235
 ps_wavelet_create                    1 10.0    0.000    0.000    2.143    2.235
 RS_z_slice_distribution              1 11.0    0.192    0.217    2.143    2.235
 tddfpt_print_nto_analysis            1  6.0    0.002    0.002    2.174    2.175
 arnoldi_conjugate_gradient           5  6.0    0.029    0.038    2.138    2.138
 mp_allgather_i34                  2201 12.4    1.856    2.023    1.856    2.023
 make_images_data                  4402 13.4    0.029    0.038    0.213    1.993
 hybrid_alltoall_any               6106 13.5    0.029    0.040    0.144    1.933
 tddfpt_orthonormalize_psi1_psi      14  6.9    0.021    0.022    1.899    1.916
 tddfpt_compute_residual_vects       12  7.0    0.001    0.001    1.911    1.914
 mp_sum_l                          8225 10.8    1.335    1.876    1.335    1.876
 fft_wrap_pw1pw2_30                 672 12.0    0.016    0.020    1.356    1.852
 pw_copy_from_array                3429 12.9    1.378    1.844    1.378    1.844
 mp_alltoall_z11v                  1344 15.0    1.266    1.694    1.266    1.694
 cp_fm_geeig                         20  7.0    0.001    0.001    1.666    1.672
 xc_functional_eval                1416 10.9    0.001    0.006    0.846    1.606
 pbe_lda_eval                      1416 11.9    0.845    1.606    0.845    1.606
 transfer_rs2pw_10                  337 12.1    0.557    0.629    1.386    1.530
 transfer_pw2rs_10                  335 12.0    0.388    0.435    1.352    1.505
 dbcsr_sym_matrix_vector_mult      9855  7.0    0.071    0.076    1.241    1.353
 cp_dbcsr_plus_fm_fm_t              335  8.6    0.003    0.003    1.175    1.225
 integrate_four_center_load         595 10.9    0.001    0.004    0.601    1.164
 hfx_load_balance                     1 11.0    0.001    0.003    0.599    1.163
 hfx_load_balance_range               1 12.0    0.000    0.000    0.584    1.147
 mp_irecv_dm3                     14790 12.9    0.416    1.081    0.416    1.081
 mp_irecv_dv                     200860 13.7    0.123    1.073    0.123    1.073
 mp_rank_compare                   6789 14.2    0.972    1.069    0.972    1.069
 prepare_dr1dr                     1300 11.1    0.795    1.054    0.795    1.054
 cp_fm_trace_a1b1t1_aa            34140  8.0    0.071    0.075    0.924    0.963
 tddfpt_apply_energy_diff            13  8.0    0.001    0.001    0.947    0.953
 yz_to_xz                           670 14.0    0.045    0.053    0.639    0.937
 dbcsr_rep_row_to_rep_col_vec      9855  8.0    0.028    0.037    0.491    0.897
 xz_to_yz                           674 14.1    0.036    0.049    0.708    0.890
 rs_scatter_matrices                337 10.1    0.005    0.025    0.076    0.773
 multiply_cannon_multrec          52824 13.4    0.112    0.761    0.118    0.767
 offload_free_buffer                343 10.4    0.618    0.746    0.618    0.746
 tddfpt_construct_ground_state_       1  6.0    0.000    0.000    0.698    0.706
 fft_wrap_pw1pw2_10                 672 12.0    0.005    0.006    0.542    0.662
 powell_optimize                 323395 11.0    0.488    0.594    0.488    0.594
 calc_pair_dist_radii                 1 10.0    0.297    0.350    0.521    0.577
 init_scf_run                         1  3.0    0.001    0.007    0.566    0.566
 tddfpt_orthogonalize_psi1_psi0      14  6.9    0.000    0.000    0.535    0.555
 dbcsr_col_vec_to_rep_row          9855  8.0    0.034    0.042    0.310    0.535
 scf_env_initial_rho_setup            1  4.0    0.000    0.001    0.493    0.493
 make_images_sizes                 4402 13.4    0.003    0.004    0.453    0.487
 mp_alltoall_i44                   4402 14.4    0.450    0.483    0.450    0.483
 mp_cart_sub                       3410 11.4    0.455    0.457    0.455    0.457
 -------------------------------------------------------------------------------

 The number of warnings for this run is : 1
 
 -------------------------------------------------------------------------------
  **** **** ******  **  PROGRAM ENDED AT                 2025-03-25 19:22:37.902
 ***** ** ***  *** **   PROGRAM RAN ON                                  n2cn0225
 **    ****   ******    PROGRAM RAN BY                                  metdyn02
 ***** **    ** ** **   PROGRAM PROCESS ID                               3187043
  **** **  *******  **  PROGRAM STOPPED IN /scratch/hpc-prf-metdyn/metdyn02_Remi
                                           /10_MOL/05_MOL/aUKBqsEOTmq69kFe5R_nOg
                                           /5k_set_final_qzvp/FAYZOU/TZVP/TDDFT/
                                           1e-4
