 DBCSR| CPU Multiplication driver                                           XSMM (U)
 DBCSR| Multrec recursion limit                                              512 (U)
 DBCSR| Multiplication stack size                                           1000 (D)
 DBCSR| Maximum elements for images                                    UNLIMITED (U)
 DBCSR| Multiplicative factor virtual images                                   1 (U)
 DBCSR| Use multiplication densification                                       T (D)
 DBCSR| Multiplication size stacks                                             3 (U)
 DBCSR| Use memory pool for CPU allocation                                     F (U)
 DBCSR| Number of 3D layers                                               SINGLE (U)
 DBCSR| Use MPI memory allocation                                              F (U)
 DBCSR| Use RMA algorithm                                                      F (U)
 DBCSR| Use Communication thread                                               T (U)
 DBCSR| Communication thread load                                             75 (D)
 DBCSR| MPI: My process id                                                     0
 DBCSR| MPI: Number of processes                                              16
 DBCSR| OMP: Current number of threads                                         4
 DBCSR| OMP: Max number of threads                                             4
 DBCSR| Split modifier for TAS multiplication algorithm                  1.0E+00 (U)


  **** **** ******  **  PROGRAM STARTED AT               2025-07-01 21:41:51.627
 ***** ** ***  *** **   PROGRAM STARTED ON                              n2cn0193
 **    ****   ******    PROGRAM STARTED BY                              metdyn02
 ***** **    ** ** **   PROGRAM PROCESS ID                               2118449
  **** **  *******  **  PROGRAM STARTED IN /scratch/hpc-prf-metdyn/metdyn02_Remi
                                           /10_MOL/05_MOL/W4-11+ALK/ccl2/mini-SZ
                                           V/GW+BSE/1e-4

 CP2K| version string:                 CP2K version 2025.1 (Development Version)
 CP2K| source code revision number:                                  git:400017f
 CP2K| cp2kflags: omp libint fftw3 libxc libgrpp elpa parallel scalapack mpi_f08
 CP2K|             cosma xsmm plumed2 spglib libvori libbqb libvdwxc hdf5
 CP2K| is freely available from                            https://www.cp2k.org/
 CP2K| Program compiled at                         Thu Jun 26 12:02:16 CEST 2025
 CP2K| Program compiled on                                              n2login1
 CP2K| Program compiled for                                                local
 CP2K| Data directory path    /opt/software/pc2/EB-SW/software/CP2K/2024.1-foss-
 CP2K| Input file name                                                    GW.inp

 GLOBAL| Force Environment number                                              1
 GLOBAL| Basis set file name            /scratch/hpc-prf-metdyn/metdyn02_Remi/BA
 GLOBAL| Potential file name            /pc2/groups/hpc-prf-metdyn/metdyn02_Remi
 GLOBAL| MM Potential file name                                     MM_POTENTIAL
 GLOBAL| Coordinate file name                                      __STD_INPUT__
 GLOBAL| Method name                                                        CP2K
 GLOBAL| Project name                                                       MoS2
 GLOBAL| Run type                                                         ENERGY
 GLOBAL| FFT library                                                       FFTW3
 GLOBAL| Diagonalization library                                            ELPA
 GLOBAL| Cholesky decomposition library                                ScaLAPACK
 GLOBAL| DGEMM library                                                      BLAS
 GLOBAL| Minimum number of eigenvectors for ELPA usage                        16
 GLOBAL| Orthonormality check for eigenvectors                          DISABLED
 GLOBAL| Matrix multiplication library                                     COSMA
 GLOBAL| All-to-all communication in single precision                          F
 GLOBAL| FFTs using library dependent lengths                                  F
 GLOBAL| Grid backend                                                       AUTO
 GLOBAL| Global print level                                               MEDIUM
 GLOBAL| MPI I/O enabled                                                       T
 GLOBAL| Total number of message passing processes                            16
 GLOBAL| Number of threads for this process                                    4
 GLOBAL| This output is from process                                           0
 GLOBAL| OpenMP stack size per thread (OMP_STACKSIZE)                    default
 GLOBAL| CPU model name                          AMD EPYC 7763 64-Core Processor
 GLOBAL| CPUID                                                              1002

 MEMORY| system memory details [Kb]
 MEMORY|                        rank 0           min           max       average
 MEMORY| MemTotal            263897592     263897592     263897616     263897604
 MEMORY| MemFree             249028016     248102128     249028016     248565103
 MEMORY| Buffers                 70656         70656        139020        104838
 MEMORY| Cached                7788824       7788824       9361584       8575204
 MEMORY| Slab                  1982448       1843824       1982448       1913136
 MEMORY| SReclaimable           499244        486632        499244        492938
 MEMORY| MemLikelyFree       257386740     257386740     258089868     257738083


 *** Fundamental physical constants (SI units) ***

 *** Literature: B. J. Mohr and B. N. Taylor,
 ***             CODATA recommended values of the fundamental physical
 ***             constants: 2006, Web Version 5.1
 ***             http://physics.nist.gov/constants

 Speed of light in vacuum [m/s]                             2.99792458000000E+08
 Magnetic constant or permeability of vacuum [N/A**2]       1.25663706143592E-06
 Electric constant or permittivity of vacuum [F/m]          8.85418781762039E-12
 Planck constant (h) [J*s]                                  6.62606896000000E-34
 Planck constant (h-bar) [J*s]                              1.05457162825177E-34
 Elementary charge [C]                                      1.60217648700000E-19
 Electron mass [kg]                                         9.10938215000000E-31
 Electron g factor [ ]                                     -2.00231930436220E+00
 Proton mass [kg]                                           1.67262163700000E-27
 Fine-structure constant                                    7.29735253760000E-03
 Rydberg constant [1/m]                                     1.09737315685270E+07
 Avogadro constant [1/mol]                                  6.02214179000000E+23
 Boltzmann constant [J/K]                                   1.38065040000000E-23
 Atomic mass unit [kg]                                      1.66053878200000E-27
 Bohr radius [m]                                            5.29177208590000E-11

 *** Conversion factors ***

 [u] -> [a.u.]                                              1.82288848426455E+03
 [Angstrom] -> [Bohr] = [a.u.]                              1.88972613288564E+00
 [a.u.] = [Bohr] -> [Angstrom]                              5.29177208590000E-01
 [a.u.] -> [s]                                              2.41888432650478E-17
 [a.u.] -> [fs]                                             2.41888432650478E-02
 [a.u.] -> [J]                                              4.35974393937059E-18
 [a.u.] -> [N]                                              8.23872205491840E-08
 [a.u.] -> [K]                                              3.15774647902944E+05
 [a.u.] -> [kJ/mol]                                         2.62549961709828E+03
 [a.u.] -> [kcal/mol]                                       6.27509468713739E+02
 [a.u.] -> [Pa]                                             2.94210107994716E+13
 [a.u.] -> [bar]                                            2.94210107994716E+08
 [a.u.] -> [atm]                                            2.90362800883016E+08
 [a.u.] -> [eV]                                             2.72113838565563E+01
 [a.u.] -> [Hz]                                             6.57968392072181E+15
 [a.u.] -> [1/cm] (wave numbers)                            2.19474631370540E+05
 [a.u./Bohr**2] -> [1/cm]                                   5.14048714338585E+03
 

 CELL_TOP| Volume [angstrom^3]:                                     27000.000000
 CELL_TOP| Vector a [angstrom    30.000     0.000     0.000   |a| =    30.000000
 CELL_TOP| Vector b [angstrom     0.000    30.000     0.000   |b| =    30.000000
 CELL_TOP| Vector c [angstrom     0.000     0.000    30.000   |c| =    30.000000
 CELL_TOP| Angle (b,c), alpha [degree]:                                90.000000
 CELL_TOP| Angle (a,c), beta  [degree]:                                90.000000
 CELL_TOP| Angle (a,b), gamma [degree]:                                90.000000
 CELL_TOP| Numerically orthorhombic:                                         YES
 CELL_TOP| Periodicity                                                      NONE

 GENERATE|  Preliminary Number of Bonds generated:                             0
 GENERATE|  Achieved consistency in connectivity generation.

 CELL| Volume [angstrom^3]:                                         27000.000000
 CELL| Vector a [angstrom]:      30.000     0.000     0.000   |a| =    30.000000
 CELL| Vector b [angstrom]:       0.000    30.000     0.000   |b| =    30.000000
 CELL| Vector c [angstrom]:       0.000     0.000    30.000   |c| =    30.000000
 CELL| Angle (b,c), alpha [degree]:                                    90.000000
 CELL| Angle (a,c), beta  [degree]:                                    90.000000
 CELL| Angle (a,b), gamma [degree]:                                    90.000000
 CELL| Numerically orthorhombic:                                             YES
 CELL| Periodicity                                                          NONE

 CELL_REF| Volume [angstrom^3]:                                     27000.000000
 CELL_REF| Vector a [angstrom    30.000     0.000     0.000   |a| =    30.000000
 CELL_REF| Vector b [angstrom     0.000    30.000     0.000   |b| =    30.000000
 CELL_REF| Vector c [angstrom     0.000     0.000    30.000   |c| =    30.000000
 CELL_REF| Angle (b,c), alpha [degree]:                                90.000000
 CELL_REF| Angle (a,c), beta  [degree]:                                90.000000
 CELL_REF| Angle (a,b), gamma [degree]:                                90.000000
 CELL_REF| Numerically orthorhombic:                                         YES
 CELL_REF| Periodicity                                                      NONE

 *******************************************************************************
 *******************************************************************************
 **                                                                           **
 **     #####                         ##              ##                      **
 **    ##   ##            ##          ##              ##                      **
 **   ##     ##                       ##            ######                    **
 **   ##     ##  ##   ##  ##   #####  ##  ##   ####   ##    #####    #####    **
 **   ##     ##  ##   ##  ##  ##      ## ##   ##      ##   ##   ##  ##   ##   **
 **   ##  ## ##  ##   ##  ##  ##      ####     ###    ##   ######   ######    **
 **    ##  ###   ##   ##  ##  ##      ## ##      ##   ##   ##       ##        **
 **     #######   #####   ##   #####  ##  ##  ####    ##    #####   ##        **
 **           ##                                                    ##        **
 **                                                                           **
 **                                                ... make the atoms dance   **
 **                                                                           **
 **            Copyright (C) by CP2K developers group (2000-2025)             **
 **                      J. Chem. Phys. 152, 194103 (2020)                    **
 **                                                                           **
 *******************************************************************************

 DFT| Spin restricted Kohn-Sham (RKS) calculation                            RKS
 DFT| Multiplicity                                                             1
 DFT| Number of spin states                                                    1
 DFT| Charge                                                                   0
 DFT| Self-interaction correction (SIC)                                       NO
 DFT| Cutoffs: density                                              1.000000E-10
 DFT|          gradient                                             1.000000E-10
 DFT|          tau                                                  1.000000E-10
 DFT|          cutoff_smoothing_range                               0.000000E+00
 DFT| XC density smoothing                                                  NONE
 DFT| XC derivatives                                                          PW

 FUNCTIONAL| PBE:
 FUNCTIONAL| J.P.Perdew, K.Burke, M.Ernzerhof, Phys. Rev. Letter, vol. 77, n 18,
 FUNCTIONAL|  pp. 3865-3868, (1996)sx=0.750sc=1.000{spin unpolarized}           


 QS| Method:                                                                GAPW
 QS| Density plane wave grid type                        NON-SPHERICAL FULLSPACE
 QS| Number of grid levels:                                                    4
 QS| Density cutoff [a.u.]:                                                250.0
 QS| Multi grid cutoff [a.u.]: 1) grid level                               250.0
 QS|                           2) grid level                                83.3
 QS|                           3) grid level                                27.8
 QS|                           4) grid level                                 9.3
 QS| Grid level progression factor:                                          3.0
 QS| Relative density cutoff [a.u.]:                                        50.0
 QS| Interaction thresholds: eps_pgf_orb:                                1.0E-12
 QS|                         eps_filter_matrix:                          0.0E+00
 QS|                         eps_core_charge:                            1.0E-14
 QS|                         eps_rho_gspace:                             1.0E-12
 QS|                         eps_rho_rspace:                             1.0E-12
 QS|                         eps_gvg_rspace:                             1.0E-06
 QS|                         eps_ppl:                                    1.0E-02
 QS|                         eps_ppnl:                                   1.0E-08
 QS| GAPW|      One center basis from orbital basis primitives
 QS| GAPW|                   eps_fit:                                    1.0E-04
 QS| GAPW|                   eps_iso:                                    1.0E-12
 QS| GAPW|                   eps_svd:                                    1.0E-08
 QS| GAPW|                   eps_cpc:                                    1.0E-12
 QS| GAPW|   atom-r-grid: quadrature:                                     GC_LOG
 QS| GAPW|      atom-s-grid:  max l :                                          2
 QS| GAPW|      max_l_rho0 :                                                   2


 ATOMIC KIND INFORMATION

  1. Atomic kind: C                                     Number of atoms:       1

     Orbital Basis Set                                    aug-SZV-MOLOPT-ae-mini

       Number of orbital shell sets:                                           2
       Number of orbital shells:                                               5
       Number of primitive Cartesian functions:                                7
       Number of Cartesian basis functions:                                    9
       Number of spherical basis functions:                                    9
       Norm type:                                                              2

       Normalised Cartesian orbitals:

                        Set   Shell   Orbital            Exponent    Coefficient

                          1       1    2s                0.114558       0.000000
                                                         0.222289       0.161536
                                                         0.683483       0.214036
                                                         2.941249      -0.160017

                          1       2    3s                0.114558       0.000272
                                                         0.222289       0.256636
                                                         0.683483      -0.079244
                                                         2.941249       0.000032

                          1       3    3px               0.114558       0.000000
                                                         0.222289       0.085276
                                                         0.683483       0.538304
                                                         2.941249       0.856044
                          1       3    3py               0.114558       0.000000
                                                         0.222289       0.085276
                                                         0.683483       0.538304
                                                         2.941249       0.856044
                          1       3    3pz               0.114558       0.000000
                                                         0.222289       0.085276
                                                         0.683483       0.538304
                                                         2.941249       0.856044

                          1       4    4px               0.114558      -0.035043
                                                         0.222289      -0.159067
                                                         0.683483       0.106927
                                                         2.941249      -0.036832
                          1       4    4py               0.114558      -0.035043
                                                         0.222289      -0.159067
                                                         0.683483       0.106927
                                                         2.941249      -0.036832
                          1       4    4pz               0.114558      -0.035043
                                                         0.222289      -0.159067
                                                         0.683483       0.106927
                                                         2.941249      -0.036832

                          2       1    1s               71.616837       2.707801
                                                        13.045096       2.618883
                                                         3.530512       0.816191

     RI Auxiliary Basis Set             RI_aug-SZV-MOLOPT-ae-mini_N_RI_022_s_p_d

       Number of orbital shell sets:                                          10
       Number of orbital shells:                                              10
       Number of primitive Cartesian functions:                               10
       Number of Cartesian basis functions:                                   24
       Number of spherical basis functions:                                   22
       Norm type:                                                              2

       Normalised Cartesian orbitals:

                        Set   Shell   Orbital            Exponent    Coefficient

                          1       1    9dx2              0.319489       0.223463
                          1       1    9dxy              0.319489       0.387050
                          1       1    9dxz              0.319489       0.387050
                          1       1    9dy2              0.319489       0.223463
                          1       1    9dyz              0.319489       0.387050
                          1       1    9dz2              0.319489       0.223463

                          2       1    1s                0.357304       0.329373

                          3       1    7px               0.413040       0.471987
                          3       1    7py               0.413040       0.471987
                          3       1    7pz               0.413040       0.471987

                          4       1    2s                0.585920       0.477297

                          5       1    3s                0.962549       0.692592

                          6       1    8px               1.175289       1.744299
                          6       1    8py               1.175289       1.744299
                          6       1    8pz               1.175289       1.744299

                          7       1    4s                1.583093       1.005866

                          8       1   10dx2              1.968757       5.385741
                          8       1   10dxy              1.968757       9.328377
                          8       1   10dxz              1.968757       9.328377
                          8       1   10dy2              1.968757       5.385741
                          8       1   10dyz              1.968757       9.328377
                          8       1   10dz2              1.968757       5.385741

                          9       1    5s                2.602827       1.460475

                         10       1    6s                4.278785       2.120315

       Atomic covalent radius [Angstrom]:                                  0.770

       Atomic van der Waals radius [Angstrom]:                             1.700

     The atoms of this atomic kind are PAW atoms (GAPW):
       Hard Gaussian function radius:                                      1.512
       Rho0 radius:                                                        1.512
       Maximum GTO radius used for PAW projector construction:            24.566

     GAPW Soft Basis Set                             aug-SZV-MOLOPT-ae-mini_soft

       Number of orbital shell sets:                                           2
       Number of orbital shells:                                               5
       Number of primitive Cartesian functions:                                5
       Number of Cartesian basis functions:                                    9
       Number of spherical basis functions:                                    9
       Norm type:                                                              2

       Normalised Cartesian orbitals:

                        Set   Shell   Orbital            Exponent    Coefficient

                          1       1    2s                0.114558       0.000000
                                                         0.222289       0.161536
                                                         0.683483       0.214036
                                                         2.941249      -0.160017

                          1       2    3s                0.114558       0.000272
                                                         0.222289       0.256636
                                                         0.683483      -0.079244
                                                         2.941249       0.000032

                          1       3    3px               0.114558       0.000000
                                                         0.222289       0.085276
                                                         0.683483       0.538304
                                                         2.941249       0.856044
                          1       3    3py               0.114558       0.000000
                                                         0.222289       0.085276
                                                         0.683483       0.538304
                                                         2.941249       0.856044
                          1       3    3pz               0.114558       0.000000
                                                         0.222289       0.085276
                                                         0.683483       0.538304
                                                         2.941249       0.856044

                          1       4    4px               0.114558      -0.035043
                                                         0.222289      -0.159067
                                                         0.683483       0.106927
                                                         2.941249      -0.036832
                          1       4    4py               0.114558      -0.035043
                                                         0.222289      -0.159067
                                                         0.683483       0.106927
                                                         2.941249      -0.036832
                          1       4    4pz               0.114558      -0.035043
                                                         0.222289      -0.159067
                                                         0.683483       0.106927
                                                         2.941249      -0.036832

                          2       1    1s                3.530512       0.816191

     AE Potential information for                                            ALL

       Description:                                       All-electron potential
                                          Krack, Parrinello, PCCP 2, 2105 (2000)

       Gaussian exponent of the core charge distribution:               4.109048
       Electronic configuration (s p d ...):                           4   2   0

  2. Atomic kind: CL                                    Number of atoms:       2

     Orbital Basis Set                                    aug-SZV-MOLOPT-ae-mini

       Number of orbital shell sets:                                           3
       Number of orbital shells:                                               7
       Number of primitive Cartesian functions:                               10
       Number of Cartesian basis functions:                                   13
       Number of spherical basis functions:                                   13
       Norm type:                                                              2

       Normalised Cartesian orbitals:

                        Set   Shell   Orbital            Exponent    Coefficient

                          1       1    1s                2.129386      -0.275914
                                                         0.594093       0.108800
                                                         0.232524       0.214880
                                                         0.080000       0.000000

                          1       2    2s                2.129386       0.000000
                                                         0.594093       0.898056
                                                         0.232524      -0.359822
                                                         0.080000      -0.008509

                          1       3    2px               2.129386       0.038821
                                                         0.594093       0.442483
                                                         0.232524       0.106333
                                                         0.080000       0.000000
                          1       3    2py               2.129386       0.038821
                                                         0.594093       0.442483
                                                         0.232524       0.106333
                                                         0.080000       0.000000
                          1       3    2pz               2.129386       0.038821
                                                         0.594093       0.442483
                                                         0.232524       0.106333
                                                         0.080000       0.000000

                          1       4    3px               2.129386       0.000000
                                                         0.594093      -0.559037
                                                         0.232524      -0.109601
                                                         0.080000       0.030137
                          1       4    3py               2.129386       0.000000
                                                         0.594093      -0.559037
                                                         0.232524      -0.109601
                                                         0.080000       0.030137
                          1       4    3pz               2.129386       0.000000
                                                         0.594093      -0.559037
                                                         0.232524      -0.109601
                                                         0.080000       0.030137

                          2       1    1s               38.960419      -1.111052
                                                         9.053563       1.486126
                                                         2.944500       1.121601

                          2       2    2px              38.960419      21.632683
                                                         9.053563      13.603241
                                                         2.944500       2.154979
                          2       2    2py              38.960419      21.632683
                                                         9.053563      13.603241
                                                         2.944500       2.154979
                          2       2    2pz              38.960419      21.632683
                                                         9.053563      13.603241
                                                         2.944500       2.154979

                          3       1    1s              601.345610      13.356745
                                                       109.535850      12.918056
                                                        29.644670       4.025998

     RI Auxiliary Basis Set             RI_aug-SZV-MOLOPT-ae-mini_N_RI_021_s_p_d

       Number of orbital shell sets:                                           9
       Number of orbital shells:                                               9
       Number of primitive Cartesian functions:                                9
       Number of Cartesian basis functions:                                   23
       Number of spherical basis functions:                                   21
       Norm type:                                                              2

       Normalised Cartesian orbitals:

                        Set   Shell   Orbital            Exponent    Coefficient

                          1       1    1s                0.193850       0.208214

                          2       1    8dx2              0.204288       0.102173
                          2       1    8dxy              0.204288       0.176968
                          2       1    8dxz              0.204288       0.176968
                          2       1    8dy2              0.204288       0.102173
                          2       1    8dyz              0.204288       0.176968
                          2       1    8dz2              0.204288       0.102173

                          3       1    2s                0.421453       0.372797

                          4       1    6px               0.612043       0.771645
                          4       1    6py               0.612043       0.771645
                          4       1    6pz               0.612043       0.771645

                          5       1    7px               0.774695       1.035985
                          5       1    7py               0.774695       1.035985
                          5       1    7pz               0.774695       1.035985

                          6       1    3s                0.871759       0.642995

                          7       1    9dx2              1.133760       2.050318
                          7       1    9dxy              1.133760       3.551256
                          7       1    9dxz              1.133760       3.551256
                          7       1    9dy2              1.133760       2.050318
                          7       1    9dyz              1.133760       3.551256
                          7       1    9dz2              1.133760       2.050318

                          8       1    4s                1.737393       1.078534

                          9       1    5s                3.531154       1.835894

       Atomic covalent radius [Angstrom]:                                  0.990

       Atomic van der Waals radius [Angstrom]:                             1.750

     The atoms of this atomic kind are PAW atoms (GAPW):
       Hard Gaussian function radius:                                      1.512
       Rho0 radius:                                                        1.512
       Maximum GTO radius used for PAW projector construction:            24.566

     GAPW Soft Basis Set                             aug-SZV-MOLOPT-ae-mini_soft

       Number of orbital shell sets:                                           3
       Number of orbital shells:                                               7
       Number of primitive Cartesian functions:                                5
       Number of Cartesian basis functions:                                   13
       Number of spherical basis functions:                                   13
       Norm type:                                                              2

       Normalised Cartesian orbitals:

                        Set   Shell   Orbital            Exponent    Coefficient

                          1       1    1s                2.129386      -0.275914
                                                         0.594093       0.108800
                                                         0.232524       0.214880
                                                         0.080000       0.000000

                          1       2    2s                2.129386       0.000000
                                                         0.594093       0.898056
                                                         0.232524      -0.359822
                                                         0.080000      -0.008509

                          1       3    2px               2.129386       0.038821
                                                         0.594093       0.442483
                                                         0.232524       0.106333
                                                         0.080000       0.000000
                          1       3    2py               2.129386       0.038821
                                                         0.594093       0.442483
                                                         0.232524       0.106333
                                                         0.080000       0.000000
                          1       3    2pz               2.129386       0.038821
                                                         0.594093       0.442483
                                                         0.232524       0.106333
                                                         0.080000       0.000000

                          1       4    3px               2.129386       0.000000
                                                         0.594093      -0.559037
                                                         0.232524      -0.109601
                                                         0.080000       0.030137
                          1       4    3py               2.129386       0.000000
                                                         0.594093      -0.559037
                                                         0.232524      -0.109601
                                                         0.080000       0.030137
                          1       4    3pz               2.129386       0.000000
                                                         0.594093      -0.559037
                                                         0.232524      -0.109601
                                                         0.080000       0.030137

                          2       1    1s                2.944500       1.121601

                          2       2    2px               2.944500       2.154979
                          2       2    2py               2.944500       2.154979
                          2       2    2pz               2.944500       2.154979

                          3       1    1s         

     AE Potential information for                                            ALL

       Description:                                       All-electron potential
                                          Krack, Parrinello, PCCP 2, 2105 (2000)

       Gaussian exponent of the core charge distribution:               2.974420
       Electronic configuration (s p d ...):                           6  11   0


 MOLECULE KIND INFORMATION


 All atoms are their own molecule, skipping detailed information


 TOTAL NUMBERS AND MAXIMUM NUMBERS

  Total number of            - Atomic kinds:                                   2
                             - Atoms:                                          3
                             - Shell sets:                                     8
                             - Shells:                                        19
                             - Primitive Cartesian functions:                 27
                             - Cartesian basis functions:                     35
                             - Spherical basis functions:                     35

  Maximum angular momentum of the orbital basis functions:                     1


 MODULE QUICKSTEP: ATOMIC COORDINATES IN ANGSTROM

   Atom Kind Element         X             Y             Z       Z(eff)     Mass
      1    1 C     6     15.000000     15.497813     15.000000   6.0000  12.0107
      2    2 CL   17     13.599593     14.502187     15.000000  17.0000  35.4530
      3    2 CL   17     16.400407     14.502187     15.000000  17.0000  35.4530



 SCF PARAMETERS         Density guess:                                   RESTART
                        --------------------------------------------------------
                        max_scf:                                             500
                        max_scf_history:                                       0
                        max_diis:                                              4
                        --------------------------------------------------------
                        eps_scf:                                        1.00E-06
                        eps_scf_history:                                0.00E+00
                        eps_diis:                                       0.00E+00
                        eps_eigval:                                     1.00E-05
                        --------------------------------------------------------
                        level_shift [a.u.]:                             0.000000
                        --------------------------------------------------------
                        Outer loop SCF in use 
                        No variables optimised in outer loop
                        eps_scf                                         1.00E-06
                        max_scf                                               20
                        No outer loop optimization
                        step_size                                       5.00E-01

 PW_GRID| Information for grid number                                          1
 PW_GRID| Grid distributed over                                    16 processors
 PW_GRID| Real space group dimensions                                    16    1
 PW_GRID| the grid is blocked:                                                NO
 PW_GRID| Cutoff [a.u.]                                                    250.0
 PW_GRID| spherical cutoff:                                                   NO
 PW_GRID|   Bounds   1           -202     202                Points:         405
 PW_GRID|   Bounds   2           -202     202                Points:         405
 PW_GRID|   Bounds   3           -202     202                Points:         405
 PW_GRID| Volume element (a.u.^3)  0.2743E-02     Volume (a.u.^3)    182205.0337
 PW_GRID| Grid span                                                    FULLSPACE
 PW_GRID|   Distribution                         Average         Max         Min
 PW_GRID|   G-Vectors                          4151882.8     4152060     4151655
 PW_GRID|   G-Rays                               10251.6       10252       10251
 PW_GRID|   Real Space Points                  4151882.8     4264650     4100625

 PW_GRID| Information for grid number                                          2
 PW_GRID| Number of the reference grid                                         1
 PW_GRID| Grid distributed over                                    16 processors
 PW_GRID| Real space group dimensions                                    16    1
 PW_GRID| the grid is blocked:                                                NO
 PW_GRID| Cutoff [a.u.]                                                     83.3
 PW_GRID| spherical cutoff:                                                   NO
 PW_GRID|   Bounds   1           -120     119                Points:         240
 PW_GRID|   Bounds   2           -120     119                Points:         240
 PW_GRID|   Bounds   3           -120     119                Points:         240
 PW_GRID| Volume element (a.u.^3)  0.1318E-01     Volume (a.u.^3)    182205.0337
 PW_GRID| Grid span                                                    FULLSPACE
 PW_GRID|   Distribution                         Average         Max         Min
 PW_GRID|   G-Vectors                           864000.0      864720      863520
 PW_GRID|   G-Rays                                3600.0        3603        3598
 PW_GRID|   Real Space Points                   864000.0      864000      864000

 PW_GRID| Information for grid number                                          3
 PW_GRID| Number of the reference grid                                         1
 PW_GRID| Grid distributed over                                    16 processors
 PW_GRID| Real space group dimensions                                    16    1
 PW_GRID| the grid is blocked:                                                NO
 PW_GRID| Cutoff [a.u.]                                                     27.8
 PW_GRID| spherical cutoff:                                                   NO
 PW_GRID|   Bounds   1            -67      67                Points:         135
 PW_GRID|   Bounds   2            -67      67                Points:         135
 PW_GRID|   Bounds   3            -67      67                Points:         135
 PW_GRID| Volume element (a.u.^3)  0.7406E-01     Volume (a.u.^3)    182205.0337
 PW_GRID| Grid span                                                    FULLSPACE
 PW_GRID|   Distribution                         Average         Max         Min
 PW_GRID|   G-Vectors                           153773.4      154170      153630
 PW_GRID|   G-Rays                                1139.1        1142        1138
 PW_GRID|   Real Space Points                   153773.4      164025      145800

 PW_GRID| Information for grid number                                          4
 PW_GRID| Number of the reference grid                                         1
 PW_GRID| Grid distributed over                                    16 processors
 PW_GRID| Real space group dimensions                                    16    1
 PW_GRID| the grid is blocked:                                                NO
 PW_GRID| Cutoff [a.u.]                                                      9.3
 PW_GRID| spherical cutoff:                                                   NO
 PW_GRID|   Bounds   1            -40      39                Points:          80
 PW_GRID|   Bounds   2            -40      39                Points:          80
 PW_GRID|   Bounds   3            -40      39                Points:          80
 PW_GRID| Volume element (a.u.^3)  0.3559         Volume (a.u.^3)    182205.0337
 PW_GRID| Grid span                                                    FULLSPACE
 PW_GRID|   Distribution                         Average         Max         Min
 PW_GRID|   G-Vectors                            32000.0       32240       31840
 PW_GRID|   G-Rays                                 400.0         403         398
 PW_GRID|   Real Space Points                    32000.0       32000       32000

 POISSON| Solver                                                         WAVELET
 POISSON| Wavelet| Scaling function                                           40
 POISSON| Periodicity                                                       NONE

 RS_GRID| Information for grid number                                          1
 RS_GRID|   Bounds   1           -202     202                Points:         405
 RS_GRID|   Bounds   2           -202     202                Points:         405
 RS_GRID|   Bounds   3           -202     202                Points:         405
 RS_GRID| Real space distribution over                                  4 groups
 RS_GRID| Real space distribution along direction                              2
 RS_GRID| Border size                                                         30
 RS_GRID| Real space distribution over                                  4 groups
 RS_GRID| Real space distribution along direction                              3
 RS_GRID| Border size                                                         30
 RS_GRID|   Distribution                         Average         Max         Min
 RS_GRID|   Planes                                 161.2         162         161
 RS_GRID|   Distribution                         Average         Max         Min
 RS_GRID|   Planes                                 161.2         162         161

 RS_GRID| Information for grid number                                          2
 RS_GRID|   Bounds   1           -120     119                Points:         240
 RS_GRID|   Bounds   2           -120     119                Points:         240
 RS_GRID|   Bounds   3           -120     119                Points:         240
 RS_GRID| Real space distribution over                                  4 groups
 RS_GRID| Real space distribution along direction                              2
 RS_GRID| Border size                                                         32
 RS_GRID| Real space distribution over                                  4 groups
 RS_GRID| Real space distribution along direction                              3
 RS_GRID| Border size                                                         32
 RS_GRID|   Distribution                         Average         Max         Min
 RS_GRID|   Planes                                 124.0         124         124
 RS_GRID|   Distribution                         Average         Max         Min
 RS_GRID|   Planes                                 124.0         124         124

 RS_GRID| Information for grid number                                          3
 RS_GRID|   Bounds   1            -67      67                Points:         135
 RS_GRID|   Bounds   2            -67      67                Points:         135
 RS_GRID|   Bounds   3            -67      67                Points:         135
 RS_GRID| Real space fully replicated
 RS_GRID| Group size                                                           1

 RS_GRID| Information for grid number                                          4
 RS_GRID|   Bounds   1            -40      39                Points:          80
 RS_GRID|   Bounds   2            -40      39                Points:          80
 RS_GRID|   Bounds   3            -40      39                Points:          80
 RS_GRID| Real space fully replicated
 RS_GRID| Group size                                                           1

  HFX_INFO| Replica ID:                                                        1
  HFX_INFO| FRACTION:                                               0.2500000000
  HFX_INFO| Interaction Potential:                                       COULOMB
  HFX_INFO| EPS_SCHWARZ:                                                 1.0E-10
  HFX_INFO| EPS_SCHWARZ_FORCES                                           1.0E-08
  HFX_INFO| EPS_STORAGE_SCALING:                                         1.0E+00
  HFX_INFO| NBINS:                                                            64
  HFX_INFO| BLOCK_SIZE:                                                        1
  HFX_INFO| Number of periodic shells considered:                           NONE
  HFX_INFO| Number of periodic cells considered:                            NONE

 
 RI-RPA| using GPW style
 

 OVERLAP MATRIX CONDITION NUMBER
 1-Norm Condition Number (Estimate)
   CN : |A|*|A^-1|:  4.755E+000 *  1.113E+002   = 5.292E+002  Log(1-CN):  2.7236
 1-Norm and 2-Norm Condition Numbers using Diagonalization
   CN : |A|*|A^-1|:  4.755E+000 *  1.113E+002   = 5.292E+002  Log(1-CN):  2.7236
   CN : max/min ev:  2.978E+000 /  1.724E-002   = 1.728E+002  Log(2-CN):  2.2374

 Number of electrons:                                                         40
 Number of occupied orbitals:                                                 20
 Number of molecular orbitals:                                                20

 Number of orbital functions:                                                 35
 Number of independent orbital functions:                                     35

 Extrapolation method: initial_guess


 SCF WAVEFUNCTION OPTIMIZATION

  ----------------------------------- OT ---------------------------------------
  Minimizer      : CG                  : conjugate gradient
  Preconditioner : FULL_SINGLE_INVERSE : inversion of 
                                         H + eS - 2*(Sc)(c^T*H*c+const)(Sc)^T
  Precond_solver : DEFAULT
  Line search    : 3PNT                : 3 energies
  stepsize       :    0.08000000                  energy_gap     :    0.08000000
  eps_taylor     :   0.10000E-15                  max_taylor     :             4
  ----------------------------------- OT ---------------------------------------

  Step     Update method      Time    Convergence         Total energy    Change
  ------------------------------------------------------------------------------

  HFX_MEM_INFO| Est. max. program size before HFX [MiB]:                    2300
  HFX_MEM_INFO| Number of cart. primitive ERI's calculated:              9230894
  HFX_MEM_INFO| Number of sph. ERI's calculated:                          371630
  HFX_MEM_INFO| Number of sph. ERI's stored in-core:                      371630
  HFX_MEM_INFO| Number of sph. ERI's stored on disk:                           0
  HFX_MEM_INFO| Number of sph. ERI's calculated on the fly:                    0
  HFX_MEM_INFO| Total memory consumption ERI's RAM [MiB]:                      2
  HFX_MEM_INFO| Whereof max-vals [MiB]:                                        1
  HFX_MEM_INFO| Total compression factor ERI's RAM:                         2.12
  HFX_MEM_INFO| Total memory consumption ERI's disk [MiB]:                     0
  HFX_MEM_INFO| Total compression factor ERI's disk:                        0.00
  HFX_MEM_INFO| Size of density/Fock matrix [MiB]:                             0
  HFX_MEM_INFO| Size of buffers [MiB]:                                         0
  HFX_MEM_INFO| Est. max. program size after HFX  [MiB]:                    2839

     1 OT CG       0.64E-01    3.9     0.00001186      -947.9444101480 -9.48E+02
     - OT LS       0.32E-01    2.1                     -947.9444099346
     - OT LS       0.92E-03    2.1                     -947.9444100962
     2 OT CG       0.73E-03    2.9     0.00000567      -947.9444101480 -4.51E-11
     - OT LS       0.10E-02    2.1                     -947.9444101480
     - OT LS       0.14E-02    2.1                     -947.9444101480
     3 OT CG       0.11E-02    2.9     0.00000523      -947.9444101480 -1.51E-11
     - OT LS       0.16E-02    2.1                     -947.9444101480
     - OT LS       0.62E-02    2.1                     -947.9444101481
     4 OT CG       0.50E-02    2.9     0.00000843      -947.9444101481 -6.36E-11
     - OT LS       0.70E-02    2.1                     -947.9444101482
     - OT LS       0.42E-02    2.1                     -947.9444101482
     5 OT CG       0.33E-02    2.9     0.00001223      -947.9444101482 -1.15E-10
     - OT LS       0.47E-02    2.1                     -947.9444101483
     - OT LS       0.21E-02    2.1                     -947.9444101482
     6 OT CG       0.17E-02    3.0     0.00001594      -947.9444101483 -1.10E-10
     - OT LS       0.24E-02    2.1                     -947.9444101485
     - OT LS       0.23E-02    2.1                     -947.9444101485
     7 OT CG       0.19E-02    3.0     0.00001478      -947.9444101485 -2.07E-10
     - OT LS       0.26E-02    2.1                     -947.9444101487
     - OT LS       0.19E-02    2.1                     -947.9444101487
     8 OT CG       0.15E-02    2.9     0.00000977      -947.9444101487 -1.48E-10
     - OT LS       0.22E-02    2.1                     -947.9444101487
     - OT LS       0.32E-02    2.1                     -947.9444101488
     9 OT CG       0.26E-02    2.9     0.00001062      -947.9444101488 -1.06E-10
     - OT LS       0.13E-02    2.1                     -947.9444101488
     - OT LS       0.11E-02    2.1                     -947.9444101488
    10 OT CG       0.91E-03    3.0     0.00000789      -947.9444101488 -4.45E-11
     - OT LS       0.13E-02    2.1                     -947.9444101489
     - OT LS       0.24E-02    2.1                     -947.9444101489
    11 OT CG       0.19E-02    3.0     0.00000694      -947.9444101489 -5.20E-11
     - OT LS       0.26E-02    2.1                     -947.9444101489
     - OT LS       0.22E-02    2.1                     -947.9444101489
    12 OT CG       0.17E-02    3.0     0.00000428      -947.9444101489 -3.74E-11
     - OT LS       0.24E-02    2.1                     -947.9444101489
     - OT LS       0.48E-02    2.1                     -947.9444101489
    13 OT CG       0.39E-02    3.0     0.00001043      -947.9444101489  3.41E-13
     - OT LS       0.19E-02    2.1                     -947.9444101485
     - OT LS       0.79E-03    2.1                     -947.9444101489
    14 OT CG       0.63E-03    3.0     0.00000456      -947.9444101489 -3.04E-11
     - OT LS       0.89E-03    2.1                     -947.9444101489
     - OT LS       0.11E-02    2.1                     -947.9444101489
    15 OT CG       0.91E-03    2.9     0.00000223      -947.9444101489 -8.64E-12
     - OT LS       0.13E-02    2.1                     -947.9444101490
     - OT LS       0.29E-02    2.1                     -947.9444101490
    16 OT CG       0.23E-02    3.0     0.00000246      -947.9444101490 -7.05E-12
     - OT LS       0.33E-02    2.1                     -947.9444101490
     - OT LS       0.38E-02    2.1                     -947.9444101490
    17 OT CG       0.30E-02    3.0     0.00000319      -947.9444101490 -1.06E-11
     - OT LS       0.42E-02    2.1                     -947.9444101490
     - OT LS       0.34E-02    2.1                     -947.9444101490
    18 OT CG       0.27E-02    3.0     0.00000447      -947.9444101490 -1.32E-11
     - OT LS       0.14E-02    2.1                     -947.9444101490
     - OT LS       0.54E-02    2.1                     -947.9444101490
    19 OT CG       0.43E-02    3.0     0.00001941      -947.9444101489  8.06E-11
     - OT LS       0.22E-02    2.1                     -947.9444101462
     - OT LS       0.64E-03    2.1                     -947.9444101485
    20 OT CG       0.52E-03    2.9     0.00000560      -947.9444101490 -8.50E-11
     - OT LS       0.72E-03    2.1                     -947.9444101490
     - OT LS       0.17E-02    2.1                     -947.9444101490
    21 OT CG       0.14E-02    2.9     0.00000491      -947.9444101490 -1.65E-11
     - OT LS       0.19E-02    2.1                     -947.9444101490
     - OT LS       0.27E-02    2.1                     -947.9444101490
    22 OT CG       0.22E-02    3.0     0.00000419      -947.9444101490 -2.06E-11
     - OT LS       0.30E-02    2.1                     -947.9444101490
     - OT LS       0.16E-02    2.1                     -947.9444101490
    23 OT CG       0.13E-02    2.9     0.00000179      -947.9444101490 -1.02E-11
     - OT LS       0.18E-02    2.1                     -947.9444101490
     - OT LS       0.14E-02    2.1                     -947.9444101490
    24 OT CG       0.11E-02    3.0     0.00000152      -947.9444101490 -1.82E-12
     - OT LS       0.15E-02    2.2                     -947.9444101490
     - OT LS       0.22E-02    2.2                     -947.9444101490
    25 OT CG       0.18E-02    3.0     0.00000169      -947.9444101490 -2.27E-12
     - OT LS       0.25E-02    2.1                     -947.9444101490
     - OT LS       0.23E-02    2.1                     -947.9444101490
    26 OT CG       0.18E-02    3.0     0.00000173      -947.9444101490 -2.96E-12
     - OT LS       0.25E-02    2.2                     -947.9444101490
     - OT LS       0.37E-02    2.1                     -947.9444101490
    27 OT CG       0.30E-02    3.0     0.00000179      -947.9444101490 -5.80E-12
     - OT LS       0.42E-02    2.1                     -947.9444101490
     - OT LS       0.19E-02    2.1                     -947.9444101490
    28 OT CG       0.15E-02    3.0     0.00000174      -947.9444101490 -2.84E-12
     - OT LS       0.21E-02    2.1                     -947.9444101490
     - OT LS       0.43E-02    2.1                     -947.9444101491
    29 OT CG       0.34E-02    3.0     0.00000274      -947.9444101491 -5.34E-12
     - OT LS       0.17E-02    2.1                     -947.9444101491
     - OT LS       0.17E-02    2.1                     -947.9444101491
    30 OT CG       0.14E-02    3.0     0.00000238      -947.9444101491 -4.89E-12
     - OT LS       0.19E-02    2.2                     -947.9444101491
     - OT LS       0.27E-02    2.2                     -947.9444101491
    31 OT CG       0.22E-02    3.0     0.00000317      -947.9444101491 -5.57E-12
     - OT LS       0.30E-02    2.1                     -947.9444101491
     - OT LS       0.22E-02    2.1                     -947.9444101491
    32 OT CG       0.18E-02    2.9     0.00000326      -947.9444101491 -8.75E-12
     - OT LS       0.25E-02    2.1                     -947.9444101491
     - OT LS       0.25E-02    2.1                     -947.9444101491
    33 OT CG       0.20E-02    2.9     0.00000302      -947.9444101491 -8.87E-12
     - OT LS       0.28E-02    2.1                     -947.9444101491
     - OT LS       0.55E-02    2.1                     -947.9444101491
    34 OT CG       0.44E-02    2.9     0.00000744      -947.9444101491 -1.02E-12
     - OT LS       0.22E-02    2.1                     -947.9444101489
     - OT LS       0.10E-02    2.2                     -947.9444101491
    35 OT CG       0.81E-03    3.0     0.00000269      -947.9444101491 -1.98E-11
     - OT LS       0.11E-02    2.1                     -947.9444101491
     - OT LS       0.14E-02    2.1                     -947.9444101491
    36 OT CG       0.11E-02    3.0     0.00000250      -947.9444101491 -3.30E-12
     - OT LS       0.16E-02    2.2                     -947.9444101491
     - OT LS       0.14E-02    2.1                     -947.9444101491
    37 OT CG       0.11E-02    3.0     0.00000154      -947.9444101491 -3.18E-12
     - OT LS       0.16E-02    2.1                     -947.9444101491
     - OT LS       0.19E-02    2.1                     -947.9444101491
    38 OT CG       0.15E-02    3.0     0.00000161      -947.9444101491 -1.59E-12
     - OT LS       0.21E-02    2.1                     -947.9444101491
     - OT LS       0.13E-02    2.1                     -947.9444101491
    39 OT CG       0.10E-02    3.0     0.00000171      -947.9444101491 -4.55E-13
     - OT LS       0.14E-02    2.1                     -947.9444101491
     - OT LS       0.14E-02    2.1                     -947.9444101491
    40 OT CG       0.11E-02    3.0     0.00000117      -947.9444101491 -1.93E-12
     - OT LS       0.15E-02    2.1                     -947.9444101491
     - OT LS       0.13E-02    2.1                     -947.9444101491
    41 OT CG       0.11E-02    3.0     0.00000104      -947.9444101491 -6.82E-13
     - OT LS       0.15E-02    2.1                     -947.9444101491
     - OT LS       0.10E-02    2.1                     -947.9444101491
    42 OT CG       0.82E-03    3.0     0.00000109      -947.9444101491 -4.55E-13
     - OT LS       0.11E-02    2.1                     -947.9444101491
     - OT LS       0.16E-02    2.1                     -947.9444101491
    43 OT CG       0.12E-02    3.0     0.00000152      -947.9444101491 -6.82E-13
     - OT LS       0.62E-03    2.2                     -947.9444101491
     - OT LS       0.54E-03    2.1                     -947.9444101491
    44 OT CG       0.43E-03    3.0     0.00000036      -947.9444101491 -5.68E-13

  *** SCF run converged in    44 steps ***


  Electronic density on regular grids:        -22.4503806867       17.5496193133
  Core density on regular grids:               40.0000000000        0.0000000000
  Hard and soft densities (Lebedev):          -47.3727898185      -29.8231723395
  Total Rho_soft + Rho1_hard - Rho1_soft      -39.9999981657
  Total charge density (r-space):               0.0000018343
  Total Rho_soft + Rho0_soft (g-space):        -0.0000002479

  Overlap energy of the core charge distribution:               0.00000010183321
  Self energy of the core charge distribution:               -426.79759941246976
  Core Hamiltonian energy:                                   -527.06469524582485
  Hartree energy:                                              75.00193460927447
  Exchange-correlation energy:                                 -8.71908343161541
  Hartree-Fock Exchange energy:                               -14.94225059154060

  GAPW| Exc from hard and soft atomic rho1:                   -37.29766352890469
  GAPW| local Eh = 1 center integrals:                         -8.12505264986641

  Total energy:                                              -947.94441014911411

  outer SCF iter =    1 RMS gradient =   0.36E-06 energy =       -947.9444101491
  outer SCF loop converged in   1 iterations or  130 steps


 !-----------------------------------------------------------------------------!
                     Mulliken Population Analysis

 #  Atom  Element  Kind  Atomic population                           Net charge
       1     C        1          6.029500                             -0.029500
       2     CL       2         16.985250                              0.014750
       3     CL       2         16.985250                              0.014750
 # Total charge                             40.000000                 -0.000000

 !-----------------------------------------------------------------------------!

 !-----------------------------------------------------------------------------!
                           Hirshfeld Charges

  #Atom  Element  Kind  Ref Charge     Population                    Net charge
      1       C      1       6.000          5.456                         0.544
      2       CL     2      17.000         17.272                        -0.272
      3       CL     2      17.000         17.272                        -0.272

  Total Charge                                                            0.001
 !-----------------------------------------------------------------------------!


 RI-RPA section
 --------------

  Used number of processes per group:                                          1
  Maximum allowed memory usage per MPI process:                      1024.00 MiB
  RI_INFO| Cholesky decomposition group size:                                  1
  RI_INFO| Number of groups for auxiliary basis functions                     16

  RI_INFO| RI metric:                                                    COULOMB
  RI_INFO| Number of auxiliary basis functions:                               64
  GENERAL_INFO| Number of basis functions:                                    35
  GENERAL_INFO| Number of occupied orbitals:                                  20
  GENERAL_INFO| Number of virtual orbitals:                                   15
  RI_INFO| Total memory for (ia|K) integrals:                           0.15 MiB
  RI_INFO| Total memory for G0W0-(nm|K) integrals:                      0.60 MiB
  RI_INFO| Total memory for (ij|K) integrals:                           0.20 MiB
  RI_INFO| Total memory for (ab|K) integrals:                           0.11 MiB
  RI_INFO| Group size for frequency integration:                              16
  INTEG_INFO| Clenshaw-Curtius quadrature
  INTEG_INFO| Number of integration points:                                  100
  INTEG_INFO| Number of integration points per RPA group:                    100
  MATRIX_INFO| Number row processes:                                           2
  MATRIX_INFO| Number column processes:                                        8
  MATRIX_INFO| Row block size:                                                16
  MATRIX_INFO| Column block size:                                             18
  INTEG_INFO| Scaling parameter:                                         0.20000
  INTEG_INFO| Started with Integration point   1 of 100
  INTEG_INFO| Started with Integration point   2 of 100
  INTEG_INFO| Started with Integration point   3 of 100
  INTEG_INFO| Started with Integration point   4 of 100
  INTEG_INFO| Started with Integration point   5 of 100
  INTEG_INFO| Started with Integration point   6 of 100
  INTEG_INFO| Started with Integration point   7 of 100
  INTEG_INFO| Started with Integration point   8 of 100
  INTEG_INFO| Started with Integration point   9 of 100
  INTEG_INFO| Started with Integration point  10 of 100
  INTEG_INFO| Started with Integration point  11 of 100
  INTEG_INFO| Started with Integration point  12 of 100
  INTEG_INFO| Started with Integration point  13 of 100
  INTEG_INFO| Started with Integration point  14 of 100
  INTEG_INFO| Started with Integration point  15 of 100
  INTEG_INFO| Started with Integration point  16 of 100
  INTEG_INFO| Started with Integration point  17 of 100
  INTEG_INFO| Started with Integration point  18 of 100
  INTEG_INFO| Started with Integration point  19 of 100
  INTEG_INFO| Started with Integration point  20 of 100
  INTEG_INFO| Started with Integration point  21 of 100
  INTEG_INFO| Started with Integration point  22 of 100
  INTEG_INFO| Started with Integration point  23 of 100
  INTEG_INFO| Started with Integration point  24 of 100
  INTEG_INFO| Started with Integration point  25 of 100
  INTEG_INFO| Started with Integration point  26 of 100
  INTEG_INFO| Started with Integration point  27 of 100
  INTEG_INFO| Started with Integration point  28 of 100
  INTEG_INFO| Started with Integration point  29 of 100
  INTEG_INFO| Started with Integration point  30 of 100
  INTEG_INFO| Started with Integration point  31 of 100
  INTEG_INFO| Started with Integration point  32 of 100
  INTEG_INFO| Started with Integration point  33 of 100
  INTEG_INFO| Started with Integration point  34 of 100
  INTEG_INFO| Started with Integration point  35 of 100
  INTEG_INFO| Started with Integration point  36 of 100
  INTEG_INFO| Started with Integration point  37 of 100
  INTEG_INFO| Started with Integration point  38 of 100
  INTEG_INFO| Started with Integration point  39 of 100
  INTEG_INFO| Started with Integration point  40 of 100
  INTEG_INFO| Started with Integration point  41 of 100
  INTEG_INFO| Started with Integration point  42 of 100
  INTEG_INFO| Started with Integration point  43 of 100
  INTEG_INFO| Started with Integration point  44 of 100
  INTEG_INFO| Started with Integration point  45 of 100
  INTEG_INFO| Started with Integration point  46 of 100
  INTEG_INFO| Started with Integration point  47 of 100
  INTEG_INFO| Started with Integration point  48 of 100
  INTEG_INFO| Started with Integration point  49 of 100
  INTEG_INFO| Started with Integration point  50 of 100
  INTEG_INFO| Started with Integration point  51 of 100
  INTEG_INFO| Started with Integration point  52 of 100
  INTEG_INFO| Started with Integration point  53 of 100
  INTEG_INFO| Started with Integration point  54 of 100
  INTEG_INFO| Started with Integration point  55 of 100
  INTEG_INFO| Started with Integration point  56 of 100
  INTEG_INFO| Started with Integration point  57 of 100
  INTEG_INFO| Started with Integration point  58 of 100
  INTEG_INFO| Started with Integration point  59 of 100
  INTEG_INFO| Started with Integration point  60 of 100
  INTEG_INFO| Started with Integration point  61 of 100
  INTEG_INFO| Started with Integration point  62 of 100
  INTEG_INFO| Started with Integration point  63 of 100
  INTEG_INFO| Started with Integration point  64 of 100
  INTEG_INFO| Started with Integration point  65 of 100
  INTEG_INFO| Started with Integration point  66 of 100
  INTEG_INFO| Started with Integration point  67 of 100
  INTEG_INFO| Started with Integration point  68 of 100
  INTEG_INFO| Started with Integration point  69 of 100
  INTEG_INFO| Started with Integration point  70 of 100
  INTEG_INFO| Started with Integration point  71 of 100
  INTEG_INFO| Started with Integration point  72 of 100
  INTEG_INFO| Started with Integration point  73 of 100
  INTEG_INFO| Started with Integration point  74 of 100
  INTEG_INFO| Started with Integration point  75 of 100
  INTEG_INFO| Started with Integration point  76 of 100
  INTEG_INFO| Started with Integration point  77 of 100
  INTEG_INFO| Started with Integration point  78 of 100
  INTEG_INFO| Started with Integration point  79 of 100
  INTEG_INFO| Started with Integration point  80 of 100
  INTEG_INFO| Started with Integration point  81 of 100
  INTEG_INFO| Started with Integration point  82 of 100
  INTEG_INFO| Started with Integration point  83 of 100
  INTEG_INFO| Started with Integration point  84 of 100
  INTEG_INFO| Started with Integration point  85 of 100
  INTEG_INFO| Started with Integration point  86 of 100
  INTEG_INFO| Started with Integration point  87 of 100
  INTEG_INFO| Started with Integration point  88 of 100
  INTEG_INFO| Started with Integration point  89 of 100
  INTEG_INFO| Started with Integration point  90 of 100
  INTEG_INFO| Started with Integration point  91 of 100
  INTEG_INFO| Started with Integration point  92 of 100
  INTEG_INFO| Started with Integration point  93 of 100
  INTEG_INFO| Started with Integration point  94 of 100
  INTEG_INFO| Started with Integration point  95 of 100
  INTEG_INFO| Started with Integration point  96 of 100
  INTEG_INFO| Started with Integration point  97 of 100
  INTEG_INFO| Started with Integration point  98 of 100
  INTEG_INFO| Started with Integration point  99 of 100
  INTEG_INFO| Started with Integration point 100 of 100
  PERFORMANCE| Average DGEMM flop rate (Gflops / MPI rank):                 0.15
  
  
  ******************************************************************************
  **                                                                          **
  **                        GW QUASIPARTICLE ENERGIES                         **
  **                                                                          **
  ******************************************************************************
   
   
  The GW quasiparticle energies are calculated according to: 
   
                      E_GW = E_SCF + Sigc(E_GW) + Sigx - vxc 
   
  Upper equation is solved self-consistently for E_GW, see Eq. (12) in J. Phys.
  Chem. Lett. 9, 306 (2018), doi: 10.1021/acs.jpclett.7b02740
  
  
  ------------
  G0W0 results
  ------------
   
  Molecular orbital   E_SCF (eV)       Sigc (eV)   Sigx-vxc (eV)       E_GW (eV)
     1 ( occ )        -2744.8082         -1.2114         95.8106      -2650.2090
     2 ( occ )        -2744.8059         -1.2812         95.8166      -2650.2705
     3 ( occ )         -279.5566         -1.2976        -18.8867       -299.7409
     4 ( occ )         -259.1641          8.4451          5.4684       -245.2506
     5 ( occ )         -259.1081          8.6284          5.5428       -244.9369
     6 ( occ )         -197.2578          5.0692          3.5627       -188.6259
     7 ( occ )         -197.2435          5.6467          3.5768       -188.0200
     8 ( occ )         -197.0454          4.4945          3.8133       -188.7376
     9 ( occ )         -197.0392          4.8052          3.8178       -188.4163
    10 ( occ )         -196.9453          5.4140          3.7328       -187.7984
    11 ( occ )         -196.9417          4.3200          3.7329       -188.8888
    12 ( occ )          -27.3747          4.0247         -5.0104        -28.3604
    13 ( occ )          -24.7802          3.3638         -4.2466        -25.6629
    14 ( occ )          -17.1997          2.8500         -3.2541        -17.6038
    15 ( occ )          -13.2847          1.5555         -2.0831        -13.8124
    16 ( occ )          -12.0375          1.8696         -2.1829        -12.3508
    17 ( occ )          -11.8512          2.3080         -2.9412        -12.4844
    18 ( occ )          -10.1897          1.4917         -1.8514        -10.5493
    19 ( occ )           -9.5713          1.6827         -2.1839        -10.0725
    20 ( occ )           -7.2406          1.4152         -2.3161         -8.1414
    21 ( vir )           -3.2079         -1.4965          5.0810          0.3767
    22 ( vir )            0.2483         -1.1217          5.0463          4.1729
    23 ( vir )            1.9318         -1.2392          4.8734          5.5660
    24 ( vir )            5.0017         -0.4749          3.3654          7.8923
    25 ( vir )            5.5399         -0.4133          3.4894          8.6160
    26 ( vir )            5.7346         -0.7732          4.0248          8.9863
    27 ( vir )            6.6372         -0.7075          3.8190          9.7487
    28 ( vir )            6.7235         -0.5499          3.4812          9.6548
    29 ( vir )            7.0683         -1.1004          4.5446         10.5124
    30 ( vir )           16.3503         -3.9305          6.3410         18.7608
    31 ( vir )           16.4589         -2.3757          5.8250         19.9082
    32 ( vir )           16.9238         -2.5056          6.0030         20.4212
    33 ( vir )           22.4887         -3.3052          9.0423         28.2258
    34 ( vir )           34.2212         -4.5253         10.8399         40.5358
    35 ( vir )           34.2847         -5.7483          8.1080         36.6444
   
  G0W0 HOMO-LUMO gap (eV)                                                 8.5181
  
  ------------------------------------------------------------------------------
  
 *******************************************************************************
 **                                                                           **
 **           Bethe Salpeter equation (BSE) for excitation energies           **
 **               solved without Tamm-Dancoff approximation (TDA)             **
 **                                                                           **
 *******************************************************************************
  
 BSE| No cutoff given for occupied orbitals
 BSE| No cutoff given for empty orbitals
 BSE| First occupied index                                                     1
 BSE| Last empty index (not MO index!)                                        15
 BSE| Energy of first occupied index [eV]                              -2650.209
 BSE| Energy of last empty index [eV]                                     36.644
 BSE| Energy difference of first occupied index to HOMO [eV]            2642.068
 BSE| Energy difference of last empty index to LUMO [eV]                  36.268
 BSE| Number of GW-corrected occupied MOs                                     20
 BSE| Number of GW-corrected empty MOs                                        15
 BSE|
 BSE| No truncation of BSE matrices applied
 BSE|
 BSE| Total peak memory estimate from BSE [GB]                         6.706E-03
 BSE| Peak memory estimate per MPI rank from BSE [GB]                      0.000
 BSE|
 BSE| Diagonalizing aux. matrix with size of A. This will take around 0.E+00 s.
 BSE| Diagonalizing C. This will take around 0.E+00 s.
 BSE|
 BSE|
 BSE| **************************************************************************
 BSE| *      Full ("ABBA") Bethe Salpeter equation (BSE) (i.e. without TDA)    *
 BSE| **************************************************************************
 BSE|
 BSE| The excitations are calculated by diagonalizing the BSE without the TDA:
 BSE|
 BSE|                |A B| |X^n|       |1  0| |X^n|
 BSE|                |B A| |Y^n| = ^n |0 -1| |Y^n|
 BSE|
 BSE| i.e. in index notation:
 BSE|
 BSE|   sum_jb ( A_ia,jb   X_jb^n + B_ia,jb   Y_jb^n ) = ^n X_ia^n
 BSE| - sum_jb ( B_ia,jb   X_jb^n + A_ia,jb   Y_jb^n ) = ^n Y_ia^n
 BSE|
 BSE|
 BSE| i,j:       occupied molecular orbitals, i.e. state in          [   1,  20]
 BSE| a,b:       unoccupied molecular orbitals, i.e. state in        [  21,  35]
 BSE| n:         Excitation index
 BSE|
 BSE| A_ia,jb = (_a-_i) _ij _ab +  * v_ia,jb - W_ij,ab
 BSE| B_ia,jb =  * v_ia,jb - W_ib,aj
 BSE|
 BSE| prelim Ref.: Eqs. (24-27),(30),(35)
 BSE| in PRB 92,045209 (2015); http://dx.doi.org/10.1103/PhysRevB.92.045209 .
 BSE|
 BSE| The BSE is solved for ^n and X_ia^n as a hermitian problem, e.g. Eq.(42)
 BSE| in PRB 92,045209 (2015); http://dx.doi.org/10.1103/PhysRevB.92.045209 .
 BSE|
 BSE| _...:                 GW quasiparticle energy
 BSE| _...:                 Kronecker delta
 BSE| :                     spin-dependent factor
 BSE| v_...:                 Electron-hole exchange interaction
 BSE| W_... = 1/ v_...:     Direct interaction screened by 
 BSE|                        dielectric function (=0)
 BSE|
 BSE|
 BSE| The spin-dependent factor is for the requested Singlet is  = 2.0
 BSE|
 BSE| Excitation energies from solving the BSE without the TDA:
 BSE|
 BSE|     Excitation n   Spin Config       TDA/ABBA   Excitation energy ^n (eV)
 BSE|                1       Singlet         -ABBA-                       1.3471
 BSE|                2       Singlet         -ABBA-                       3.5315
 BSE|                3       Singlet         -ABBA-                       4.6775
 BSE|                4       Singlet         -ABBA-                       5.7190
 BSE|                5       Singlet         -ABBA-                       5.9241
 BSE|                6       Singlet         -ABBA-                       6.9954
 BSE|                7       Singlet         -ABBA-                       7.0362
[...]
 Electronic Structure Calculations on Graphics Processing Units, 173-190 (2016).
 GPU-Accelerated Sparse Matrix-Matrix Multiplication for Linear Scaling Density 
 Functional Theory.
 https://doi.org/10.1002/9781118670712.ch8

 J. Wilhelm, M. Del Ben, J. Hutter.
 J. Chem. Theory Comput. 12, 3623-3635 (2016).
 GW in the Gaussian and plane waves scheme with application to linear acenes.
 https://doi.org/10.1021/acs.jctc.6b00380

 A. Heinecke, G. Henry, M. Hutchinson, H. Pabst.
 Proceedings of Intl. Supercomputing Conference, 981-991 (2016).
 LIBXSMM: Accelerating Small Matrix Multiplications by Runtime Code Generation.
 https://doi.org/10.1109/SC.2016.83

 M. Del Ben, O. Schuett, T. Wentz, P. Messmer, J. Hutter, J. VandeVondele.
 Comput. Phys. Commun. 187, 120-129 (2015).
 Enabling simulation at the fifth rung of DFT: Large scale RPA calculations with 
 excellent time to solution.
 https://doi.org/10.1016/j.cpc.2014.10.021

 J. Hutter, M. Iannuzzi, F. Schiffmann, J. VandeVondele.
 WIREs Comput Mol Sci. 4, 15-25 (2014).
 CP2K: atomistic simulations of condensed matter systems.
 https://doi.org/10.1002/wcms.1159

 U. Borstnik, J. VandeVondele, V. Weber, J. Hutter.
 Parallel Comput. 40, 47-58 (2014).
 Sparse matrix multiplication: The distributed block-compressed sparse row 
 library.
 https://doi.org/10.1016/j.parco.2014.03.012

 A. Marek, V. Blum, R. Johanni, V. Havu, B. Lang, T. Auckenthaler, A. Heinecke, 
 H. Bungartz, H. Lederer.
 J. Phys. Condens. Matter 26, 213201 (2014).
 The ELPA library: scalable parallel eigenvalue solutions for electronic 
 structure theory and computational science.
 https://doi.org/10.1088/0953-8984/26/21/213201

 M. Del Ben, J. Hutter, J. VandeVondele.
 J. Chem. Theory Comput. 9, 2654-2671 (2013).
 Electron Correlation in the Condensed Phase from a Resolution of Identity 
 Approach Based on the Gaussian and Plane Waves Scheme.
 https://doi.org/10.1021/ct4002202

 M. Del Ben, J. Hutter, J. VandeVondele.
 J. Chem. Theory Comput. 8, 4177-4188 (2012).
 Second-Order Moller-Plesset Perturbation Theory in the Condensed Phase: An 
 Efficient and Massively Parallel Gaussian and Plane Waves Approach.
 https://doi.org/10.1021/ct300531w

 M. Guidon, J. Hutter, J. VandeVondele.
 J. Chem. Theory Comput. 5, 3010-3021 (2009).
 Robust Periodic Hartree-Fock Exchange for Large-Scale Simulations Using 
 Gaussian Basis Sets.
 https://doi.org/10.1021/ct900494g

 M. Guidon, F. Schiffmann, J. Hutter, J. VandeVondele.
 J. Chem. Phys. 128, 214104 (2008).
 Ab initio molecular dynamics using hybrid density functionals.
 https://doi.org/10.1063/1.2931945

 L. Genovese, T. Deutsch, S. Goedecker.
 J. Chem. Phys. 127, 054704 (2007).
 Efficient and accurate three-dimensional Poisson solver for surface problems.
 https://doi.org/10.1063/1.2754685

 J. VandeVondele, J. Hutter.
 J. Chem. Phys. 127, 114105 (2007).
 Gaussian basis sets for accurate calculations on molecular systems in gas and 
 condensed phases.
 https://doi.org/10.1063/1.2770708

 L. Genovese, T. Deutsch, A. Neelov, S. Goedecker, G. Beylkin.
 J. Chem. Phys. 125, 074105 (2006).
 Efficient solution of Poisson's equation with free boundary conditions.
 https://doi.org/10.1063/1.2335442

 M. Frigo, S. G. Johnson.
 Proc. IEEE 93, 216-231 (2005).
 The design and implementation of FFTW3.
 https://doi.org/10.1109/JPROC.2004.840301

 J. VandeVondele, J. Hutter.
 J. Chem. Phys. 118, 4365-4369 (2003).
 An efficient orbital transformation method for electronic structure 
 calculations.
 https://doi.org/10.1063/1.1543154

 M. Krack, M. Parrinello.
 Phys. Chem. Chem. Phys. 2, 2105-2112 (2000).
 All-electron ab-initio molecular dynamics.
 https://doi.org/10.1039/b001167n

 G. Lippert, J. Hutter, M. Parrinello.
 Theor. Chem. Acc. 103, 124-140 (1999).
 The Gaussian and augmented-plane-wave density functional method for ab initio 
 molecular dynamics simulations.
 https://doi.org/10.1007/s002140050523

 J. P. Perdew, K. Burke, M. Ernzerhof.
 Phys. Rev. Lett. 77, 3865-3868 (1996).
 Generalized gradient approximation made simple.
 https://doi.org/10.1103/PhysRevLett.77.3865


 -------------------------------------------------------------------------------
 -                                                                             -
 -                                T I M I N G                                  -
 -                                                                             -
 -------------------------------------------------------------------------------
 SUBROUTINE                       CALLS  ASD         SELF TIME        TOTAL TIME
                                MAXIMUM       AVERAGE  MAXIMUM  AVERAGE  MAXIMUM
 CP2K                                 1  1.0    0.016    0.024  319.157  319.160
 qs_energies                          1  2.0    0.000    0.000  317.889  317.957
 scf_env_do_scf                       1  3.0    0.000    0.000  314.955  314.958
 scf_env_do_scf_inner_loop          130  4.0    0.002    0.006  311.054  311.057
 qs_ks_build_kohn_sham_matrix       131  7.0    0.017    0.018  265.908  265.912
 qs_ks_update_qs_env                131  5.0    0.001    0.001  264.294  264.297
 rebuild_ks_matrix                  130  6.0    0.000    0.000  264.288  264.291
 fft_wrap_pw1pw2                   1839  9.8    0.037    0.044  144.008  146.686
 fft_wrap_pw1pw2_250               1311 11.2    5.443    5.680  139.885  143.550
 pw_poisson_solve                   131  8.0    3.918    4.389  134.993  135.240
 fft3d_ps                          1839 11.8   49.596   52.763   97.362   99.897
 ps_wavelet_solve                   131  9.0   72.964   80.088   85.995   86.344
 qs_vxc_create                      131  8.0    0.001    0.001   80.587   80.592
 xc_pw_derive                       522 11.0    0.004    0.004   63.228   64.370
 xc_rho_set_and_dset_create         130 10.0    0.923    1.051   52.014   57.605
 qs_rho_update_rho_low              131  5.0    0.001    0.001   50.597   50.598
 calculate_rho_elec                 131  6.0    2.035    2.090   50.563   50.565
 xc_vxc_pw_create                    44  9.0    0.994    1.036   41.533   41.537
 density_rs2pw                      131  7.0    0.005    0.005   40.095   40.476
 xc_exc_calc                         86  9.0    1.344    1.389   39.053   39.054
 mp_alltoall_d54                    131 10.0    8.472   38.848    8.472   38.848
 mp_alltoall_z22v                  1839 13.8   30.560   36.801   30.560   36.801
 x_to_yz                            876 13.5    9.986   10.654   27.013   29.111
 yz_to_x                            963 12.1    7.186    7.714   20.720   24.071
 xc_pw_divergence                    44 10.0    0.001    0.001   22.116   23.216
 prepare_gapw_den                   131  8.0    0.001    0.001   21.619   22.319
 put_rho0_on_grid                   131  9.0    2.045    2.101   21.475   22.174
 pw_gather_p                        963 11.1   17.052   19.197   17.052   19.197
 pw_scatter_p                       876 12.5   18.289   18.690   18.289   18.690
 transfer_rs2pw                     656  8.4    0.012    0.016   12.325   12.838
 transfer_pw2rs                     312 10.1    0.005    0.006   10.052   10.646
 mp_sum_d                          2817  8.2    6.782   10.560    6.782   10.560
 mp_waitany                       12320 11.1    8.425   10.430    8.425   10.430
 sum_up_and_integrate                45  8.0    0.000    0.000   10.214   10.260
 integrate_v_rspace                  45  9.0    0.001    0.001   10.042   10.087
 potential_pw2rs                     45 10.0    0.018    0.018   10.014   10.049
 transfer_rs2pw_250                 263 10.0    4.028    4.460    8.671    9.338
 transfer_pw2rs_250                 177 10.5    3.108    3.629    8.528    9.337
 xc_functional_eval                 390 10.7    0.002    0.002    3.390    8.993
 pbe_lda_eval                       390 11.7    3.388    8.991    3.388    8.991
 pw_derive                          915 11.1    8.081    8.469    8.081    8.469
 grid_collocate_task_list           131  7.0    8.027    8.455    8.027    8.455
 integrate_vhg0_rspace              131  8.0    0.019    0.025    7.931    7.969
 mp_alltoall_d11v                   975 10.5    4.069    6.797    4.069    6.797
 mp_alltoall_d45                    132 10.0    3.719    6.149    3.719    6.149
 cp2k_distribution_to_z_slices      131  9.0    3.141    3.659    5.447    5.701
 pw_copy                           1530 10.5    5.298    5.567    5.298    5.567
 pw_poisson_set                     132  9.0    0.002    0.003    4.849    5.096
 pw_integral_ab_c1d_c1d_gs          131  9.0    2.864    3.060    3.797    4.295
 mp_waitall_1                     58830 13.3    2.320    4.122    2.320    4.122
 fft_wrap_pw1pw2_90                 176  9.8    0.135    0.145    3.480    4.096
 init_scf_loop                        1  4.0    0.000    0.000    3.900    3.900
 pw_copy_to_array                   963 11.1    3.056    3.283    3.056    3.283
 hfx_ks_matrix                      131  8.0    0.002    0.002    2.982    2.999
 integrate_four_center              131  9.0    1.337    2.714    2.976    2.995
 pw_copy_from_array                 876 12.5    2.603    2.759    2.603    2.759
 pw_axpy                            875  8.7    2.584    2.738    2.584    2.738
 mp_sync                           1019  9.9    1.375    2.713    1.375    2.713
 rs_grid_zero                       485 10.5    2.148    2.232    2.148    2.232
 transfer_rs2pw_90                  131  9.0    0.554    0.622    2.090    2.195
 mp2_main                             1  3.0    0.000    0.000    1.926    1.993
 mp_isend_dv                      17702 12.0    0.699    1.938    0.699    1.938
 compute_vec_Sigma_x_minus_vxc_       1  4.0    0.000    0.000    1.623    1.623
 pw_zero                            696 10.2    1.534    1.612    1.534    1.612
 mp_isend_dm3                      2464 11.1    0.326    1.603    0.326    1.603
 transfer_rs2pw_30                  131  9.0    0.441    0.536    1.206    1.254
 mp_irecv_dm3                      2464 11.1    0.195    1.234    0.195    1.234
 mp_sum_dm                         1189  7.7    0.653    1.151    0.653    1.151
 mp_sendrecv_dv                    3930 10.0    1.018    1.116    1.018    1.116
 transfer_pw2rs_90                   45 12.0    0.191    0.208    0.904    1.086
 scale_and_distribute               262 10.0    0.940    1.041    0.940    1.041
 mp_max_i                           640  3.5    0.621    1.032    0.621    1.032
 pw_poisson_rebuild                 131  9.0    0.000    0.000    0.985    1.012
 ps_wavelet_create                    1 10.0    0.000    0.000    0.985    1.012
 RS_z_slice_distribution              1 11.0    0.885    0.938    0.985    1.012
 qs_init_subsys                       1  2.0    0.001    0.001    0.793    0.793
 qs_env_setup                         1  3.0    0.000    0.000    0.790    0.791
 qs_env_rebuild_pw_env                2  3.5    0.000    0.000    0.790    0.791
 pw_env_rebuild                       1  5.0    0.000    0.000    0.790    0.791
 pw_grid_setup                        4  6.0    0.000    0.000    0.787    0.788
 pw_grid_setup_internal               4  7.0    0.011    0.011    0.787    0.788
 pw_grid_sort                         4  8.0    0.467    0.479    0.650    0.667
 fft_wrap_pw1pw2_30                 176  9.8    0.026    0.028    0.496    0.585
 transfer_pw2rs_30                   45 12.0    0.184    0.204    0.503    0.570
 Vh_1c_gg_integrals                 131  8.0    0.009    0.027    0.314    0.539
 init_scf_run                         1  3.0    0.000    0.000    0.525    0.525
 scf_env_initial_rho_setup            1  4.0    0.000    0.000    0.525    0.525
 dbcsr_multiply_generic            1092  9.2    0.021    0.022    0.493    0.501
 qs_scf_new_mos                     130  5.0    0.000    0.000    0.494    0.496
 qs_scf_loop_do_ot                  130  6.0    0.001    0.001    0.494    0.495
 ot_scf_mini                        130  7.0    0.001    0.001    0.439    0.442
 transfer_rs2pw_10                  131  9.0    0.093    0.105    0.346    0.402
 create_qs_kind_set                   1  2.0    0.000    0.000    0.371    0.372
 read_qs_kind                         2  3.0    0.057    0.210    0.371    0.372
 qs_energies_init_hamiltonians        1  3.0    0.000    0.000    0.366    0.367
 build_core_hamiltonian_matrix        1  4.0    0.000    0.000    0.354    0.354
 overlap_condnum                      1  5.0    0.000    0.000    0.353    0.353
 parser_read_line                 21662  4.0    0.003    0.003    0.314    0.325
 parser_read_line_low                27  5.0    0.009    0.132    0.311    0.322
 broadcast_input_information         27  6.0    0.004    0.005    0.301    0.321
 mp_bcast_i_src                     113  7.0    0.286    0.308    0.286    0.308
 pw_scale                           177  9.5    0.262    0.279    0.262    0.279
 calculate_vxc_atom                 131  8.0    0.030    0.060    0.253    0.260
 copy_dbcsr_to_fm                    39  7.6    0.000    0.000    0.185    0.258
 mp2_gpw_main                         1  4.0    0.000    0.000    0.237    0.244
 dbcsr_complete_redistribute         52  8.8    0.001    0.001    0.168    0.241
 mp_alltoall_i11v                   455 11.6    0.079    0.221    0.079    0.221
 make_m2s                          2184 10.2    0.011    0.011    0.182    0.197
 sort_shells                          4  9.0    0.184    0.188    0.184    0.188
 rpa_ri_compute_en                    1  5.0    0.000    0.000    0.185    0.185
 rpa_num_int                          1  6.0    0.000    0.000    0.184    0.184
 multiply_cannon                   1092 10.2    0.055    0.061    0.170    0.179
 ot_mini                            130  8.0    0.000    0.001    0.165    0.169
 powell_optimize                 102005 11.0    0.150    0.153    0.150    0.153
 make_images                       2184 11.2    0.020    0.020    0.140    0.150
 qs_ot_get_derivative                44  9.0    0.000    0.000    0.141    0.142
 transfer_pw2rs_10                   45 12.0    0.034    0.041    0.112    0.136
 calculate_rho_atom                 262  9.0    0.083    0.134    0.083    0.134
 fft_wrap_pw1pw2_10                 176  9.8    0.006    0.006    0.111    0.129
 mp_sum_i                            17  9.9    0.067    0.124    0.067    0.124
 restraint_control                    1  2.0    0.000    0.000    0.067    0.124
 mp2_main_alloc_hfx                   1  4.0    0.057    0.124    0.057    0.124
 mp_irecv_dv                      17271 12.0    0.019    0.121    0.019    0.121
 scf_post_calculation_gpw             1  3.0    0.000    0.000    0.116    0.116
 write_available_results              1  4.0    0.000    0.000    0.115    0.116
 write_mo_free_results                1  5.0    0.019    0.020    0.115    0.116
 qs_ot_get_orbitals                 130  8.0    0.000    0.000    0.110    0.115
 calc_screening_functions             1 10.0    0.031    0.032    0.113    0.115
 xc_pw_smooth                        44 10.0    0.000    0.000    0.104    0.114
 cp_fm_norm                           2  6.0    0.067    0.111    0.067    0.111
 gaVxcgb_GC                          44  9.0    0.016    0.106    0.016    0.106
 calc_pair_dist_radii                 1 10.0    0.035    0.035    0.103    0.105
 qs_ot_get_p                        131  8.0    0.000    0.000    0.095    0.099
 mp_bcast_b_src                     138  6.1    0.035    0.094    0.035    0.094
 cp_fm_diag_elpa                      4  7.8    0.000    0.000    0.092    0.092
 compute_GW_self_energy             100  7.0    0.000    0.000    0.089    0.091
 cp_fm_diag_elpa_base                 4  8.2    0.059    0.089    0.082    0.090
 qs_ot_get_derivative_taylor         44 10.0    0.000    0.001    0.086    0.087
 cp_fm_power                          2  7.5    0.000    0.000    0.084    0.084
 pw_grid_assign                       4  8.0    0.079    0.081    0.080    0.082
 compute_GW_self_energy_deep        100  8.0    0.037    0.039    0.077    0.080
 mp_sum_dv                         2596 11.2    0.065    0.078    0.065    0.078
 integrate_four_center_main         131 10.0    0.020    0.030    0.032    0.077
 parallel_gemm_fm                   218  9.5    0.000    0.000    0.066    0.075
 parallel_gemm_fm_cosma             218 10.5    0.066    0.075    0.066    0.075
 multiply_cannon_loop              1092 11.2    0.012    0.012    0.068    0.072
 mp_sum_l                          5499  9.7    0.061    0.071    0.061    0.071
 cp_fm_uplo_to_full                 110  8.1    0.013    0.071    0.013    0.071
 vxc_of_r_new                       260  9.0    0.001    0.003    0.012    0.069
 make_images_sizes                 2184 12.2    0.001    0.001    0.060    0.067
 mp_alltoall_i44                   2184 13.2    0.058    0.065    0.058    0.065
 grid_integrate_task_list            45 10.0    0.013    0.064    0.013    0.064
 hirshfeld_integration                1  6.0    0.000    0.001    0.058    0.058
 calculate_dm_sparse                131  7.0    0.000    0.000    0.056    0.058
 pw_grid_remap                        4  8.0    0.019    0.019    0.038    0.057
 rpa_num_int_RPA_matrix_operati     100  7.0    0.000    0.001    0.054    0.054
 offload_free_buffer                139  8.7    0.046    0.054    0.046    0.054
 rs_gather_matrices                  45 10.0    0.000    0.001    0.013    0.051
 integrate_four_center_bin        10713 11.0    0.012    0.047    0.012    0.047
 calc_mat_Q                         100  8.0    0.000    0.000    0.044    0.045
 contract_S_to_Q                    100  9.0    0.000    0.000    0.044    0.044
 cp_fm_to_fm_submat_general         112 10.1    0.030    0.042    0.030    0.042
 mp_alltoall_i22                    179 11.3    0.039    0.042    0.039    0.042
 mp2_ri_gpw_compute_in                1  5.0    0.000    0.000    0.042    0.042
 mp2_ri_gpw_compute_in_loop           1  6.0    0.000    0.000    0.040    0.040
 dbcsr_desymmetrize_deep             41  8.4    0.000    0.000    0.040    0.040
 write_mo_set_to_restart            130  5.0    0.003    0.034    0.033    0.038
 calculate_hirshfeld_normalizat       1  6.0    0.000    0.001    0.036    0.038
 mp_sum_im3                           4  9.0    0.019    0.038    0.019    0.038
 start_bse_calculation                1  7.0    0.000    0.000    0.037    0.037
 update_ks_atom                     131  8.0    0.006    0.009    0.023    0.035
 make_images_data                  2184 12.2    0.010    0.012    0.029    0.035
 mp_bcast_dm                        918  9.4    0.022    0.035    0.022    0.035
 mp_allgather_i34                  1092 11.2    0.024    0.035    0.024    0.035
 arnoldi_normal_ev                  132 10.0    0.001    0.001    0.030    0.034
 arnoldi_extremal                   131  9.0    0.001    0.002    0.030    0.034
 hybrid_alltoall_any               2225 13.2    0.008    0.009    0.017    0.033
 dbcsr_make_dense_low              2492 12.3    0.007    0.008    0.015    0.033
 dbcsr_make_images_dense           1750 11.5    0.006    0.006    0.021    0.033
 calculate_rho_atom_coeff           131  6.0    0.009    0.012    0.032    0.033
 -------------------------------------------------------------------------------

 The number of warnings for this run is : 0
 
 -------------------------------------------------------------------------------
  **** **** ******  **  PROGRAM ENDED AT                 2025-07-01 21:47:12.079
 ***** ** ***  *** **   PROGRAM RAN ON                                  n2cn0193
 **    ****   ******    PROGRAM RAN BY                                  metdyn02
 ***** **    ** ** **   PROGRAM PROCESS ID                               2118449
  **** **  *******  **  PROGRAM STOPPED IN /scratch/hpc-prf-metdyn/metdyn02_Remi
                                           /10_MOL/05_MOL/W4-11+ALK/ccl2/mini-SZ
                                           V/GW+BSE/1e-4
