 DBCSR| CPU Multiplication driver                                           XSMM (U)
 DBCSR| Multrec recursion limit                                              512 (U)
 DBCSR| Multiplication stack size                                           1000 (D)
 DBCSR| Maximum elements for images                                    UNLIMITED (U)
 DBCSR| Multiplicative factor virtual images                                   1 (U)
 DBCSR| Use multiplication densification                                       T (D)
 DBCSR| Multiplication size stacks                                             3 (U)
 DBCSR| Use memory pool for CPU allocation                                     F (U)
 DBCSR| Number of 3D layers                                               SINGLE (U)
 DBCSR| Use MPI memory allocation                                              F (U)
 DBCSR| Use RMA algorithm                                                      F (U)
 DBCSR| Use Communication thread                                               T (U)
 DBCSR| Communication thread load                                             60 (D)
 DBCSR| MPI: My process id                                                     0
 DBCSR| MPI: Number of processes                                              80
 DBCSR| OMP: Current number of threads                                         8
 DBCSR| OMP: Max number of threads                                             8
 DBCSR| Split modifier for TAS multiplication algorithm                  1.0E+00 (U)


  **** **** ******  **  PROGRAM STARTED AT               2025-05-27 10:39:48.778
 ***** ** ***  *** **   PROGRAM STARTED ON                              n2cn0355
 **    ****   ******    PROGRAM STARTED BY                              metdyn02
 ***** **    ** ** **   PROGRAM PROCESS ID                                 88606
  **** **  *******  **  PROGRAM STARTED IN /scratch/hpc-prf-metdyn/metdyn02_Remi
                                           /10_MOL/05_MOL_low_scal/05_MOL/aUKBqs
                                           EOTmq69kFe5R_nOg/5k_set_final_qzvp/RU
                                           GJUZ/SZV/1e-4/3.0

 CP2K| version string:                 CP2K version 2025.1 (Development Version)
 CP2K| source code revision number:                                  git:32ddf85
 CP2K| cp2kflags: omp libint fftw3 libxc libgrpp elpa parallel scalapack mpi_f08
 CP2K|             cosma xsmm plumed2 spglib libvori libbqb libvdwxc hdf5
 CP2K| is freely available from                            https://www.cp2k.org/
 CP2K| Program compiled at                         Mon May 19 11:32:37 CEST 2025
 CP2K| Program compiled on                                              n2login1
 CP2K| Program compiled for                                                local
 CP2K| Data directory path    /opt/software/pc2/EB-SW/software/CP2K/2024.1-foss-
 CP2K| Input file name                                                    GW.inp

 GLOBAL| Force Environment number                                              1
 GLOBAL| Basis set file name            /scratch/hpc-prf-metdyn/metdyn02_Remi/BA
 GLOBAL| Potential file name            /pc2/groups/hpc-prf-metdyn/metdyn02_Remi
 GLOBAL| MM Potential file name                                     MM_POTENTIAL
 GLOBAL| Coordinate file name                                      __STD_INPUT__
 GLOBAL| Method name                                                        CP2K
 GLOBAL| Project name                                                       MoS2
 GLOBAL| Run type                                                         ENERGY
 GLOBAL| FFT library                                                       FFTW3
 GLOBAL| Diagonalization library                                            ELPA
 GLOBAL| Cholesky decomposition library                                ScaLAPACK
 GLOBAL| DGEMM library                                                      BLAS
 GLOBAL| Minimum number of eigenvectors for ELPA usage                        16
 GLOBAL| Orthonormality check for eigenvectors                          DISABLED
 GLOBAL| Matrix multiplication library                                     COSMA
 GLOBAL| All-to-all communication in single precision                          F
 GLOBAL| FFTs using library dependent lengths                                  F
 GLOBAL| Grid backend                                                       AUTO
 GLOBAL| Global print level                                               MEDIUM
 GLOBAL| MPI I/O enabled                                                       T
 GLOBAL| Total number of message passing processes                            80
 GLOBAL| Number of threads for this process                                    8
 GLOBAL| This output is from process                                           0
 GLOBAL| OpenMP stack size per thread (OMP_STACKSIZE)                    default
 GLOBAL| CPU model name                          AMD EPYC 7763 64-Core Processor
 GLOBAL| CPUID                                                              1002

 MEMORY| system memory details [Kb]
 MEMORY|                        rank 0           min           max       average
 MEMORY| MemTotal            263897600     263897548     263897664     263897600
 MEMORY| MemFree             252573324     245683388     253491468     250124081
 MEMORY| Buffers                125964         14288        133588         72406
 MEMORY| Cached                7094828       6427924      13381364       9036175
 MEMORY| Slab                  1146108       1084432       1948144       1611307
 MEMORY| SReclaimable           237700        230676        594196        370983
 MEMORY| MemLikelyFree       260031816     259177572     260301788     259603646


 *** Fundamental physical constants (SI units) ***

 *** Literature: B. J. Mohr and B. N. Taylor,
 ***             CODATA recommended values of the fundamental physical
 ***             constants: 2006, Web Version 5.1
 ***             http://physics.nist.gov/constants

 Speed of light in vacuum [m/s]                             2.99792458000000E+08
 Magnetic constant or permeability of vacuum [N/A**2]       1.25663706143592E-06
 Electric constant or permittivity of vacuum [F/m]          8.85418781762039E-12
 Planck constant (h) [J*s]                                  6.62606896000000E-34
 Planck constant (h-bar) [J*s]                              1.05457162825177E-34
 Elementary charge [C]                                      1.60217648700000E-19
 Electron mass [kg]                                         9.10938215000000E-31
 Electron g factor [ ]                                     -2.00231930436220E+00
 Proton mass [kg]                                           1.67262163700000E-27
 Fine-structure constant                                    7.29735253760000E-03
 Rydberg constant [1/m]                                     1.09737315685270E+07
 Avogadro constant [1/mol]                                  6.02214179000000E+23
 Boltzmann constant [J/K]                                   1.38065040000000E-23
 Atomic mass unit [kg]                                      1.66053878200000E-27
 Bohr radius [m]                                            5.29177208590000E-11

 *** Conversion factors ***

 [u] -> [a.u.]                                              1.82288848426455E+03
 [Angstrom] -> [Bohr] = [a.u.]                              1.88972613288564E+00
 [a.u.] = [Bohr] -> [Angstrom]                              5.29177208590000E-01
 [a.u.] -> [s]                                              2.41888432650478E-17
 [a.u.] -> [fs]                                             2.41888432650478E-02
 [a.u.] -> [J]                                              4.35974393937059E-18
 [a.u.] -> [N]                                              8.23872205491840E-08
 [a.u.] -> [K]                                              3.15774647902944E+05
 [a.u.] -> [kJ/mol]                                         2.62549961709828E+03
 [a.u.] -> [kcal/mol]                                       6.27509468713739E+02
 [a.u.] -> [Pa]                                             2.94210107994716E+13
 [a.u.] -> [bar]                                            2.94210107994716E+08
 [a.u.] -> [atm]                                            2.90362800883016E+08
 [a.u.] -> [eV]                                             2.72113838565563E+01
 [a.u.] -> [Hz]                                             6.57968392072181E+15
 [a.u.] -> [1/cm] (wave numbers)                            2.19474631370540E+05
 [a.u./Bohr**2] -> [1/cm]                                   5.14048714338585E+03
 

 CELL_TOP| Volume [angstrom^3]:                                     27000.000000
 CELL_TOP| Vector a [angstrom    30.000     0.000     0.000   |a| =    30.000000
 CELL_TOP| Vector b [angstrom     0.000    30.000     0.000   |b| =    30.000000
 CELL_TOP| Vector c [angstrom     0.000     0.000    30.000   |c| =    30.000000
 CELL_TOP| Angle (b,c), alpha [degree]:                                90.000000
 CELL_TOP| Angle (a,c), beta  [degree]:                                90.000000
 CELL_TOP| Angle (a,b), gamma [degree]:                                90.000000
 CELL_TOP| Numerically orthorhombic:                                         YES
 CELL_TOP| Periodicity                                                      NONE

 GENERATE|  Preliminary Number of Bonds generated:                             0
 GENERATE|  Achieved consistency in connectivity generation.

 CELL| Volume [angstrom^3]:                                         27000.000000
 CELL| Vector a [angstrom]:      30.000     0.000     0.000   |a| =    30.000000
 CELL| Vector b [angstrom]:       0.000    30.000     0.000   |b| =    30.000000
 CELL| Vector c [angstrom]:       0.000     0.000    30.000   |c| =    30.000000
 CELL| Angle (b,c), alpha [degree]:                                    90.000000
 CELL| Angle (a,c), beta  [degree]:                                    90.000000
 CELL| Angle (a,b), gamma [degree]:                                    90.000000
 CELL| Numerically orthorhombic:                                             YES
 CELL| Periodicity                                                          NONE

 CELL_REF| Volume [angstrom^3]:                                     27000.000000
 CELL_REF| Vector a [angstrom    30.000     0.000     0.000   |a| =    30.000000
 CELL_REF| Vector b [angstrom     0.000    30.000     0.000   |b| =    30.000000
 CELL_REF| Vector c [angstrom     0.000     0.000    30.000   |c| =    30.000000
 CELL_REF| Angle (b,c), alpha [degree]:                                90.000000
 CELL_REF| Angle (a,c), beta  [degree]:                                90.000000
 CELL_REF| Angle (a,b), gamma [degree]:                                90.000000
 CELL_REF| Numerically orthorhombic:                                         YES
 CELL_REF| Periodicity                                                      NONE

 *******************************************************************************
 *******************************************************************************
 **                                                                           **
 **     #####                         ##              ##                      **
 **    ##   ##            ##          ##              ##                      **
 **   ##     ##                       ##            ######                    **
 **   ##     ##  ##   ##  ##   #####  ##  ##   ####   ##    #####    #####    **
 **   ##     ##  ##   ##  ##  ##      ## ##   ##      ##   ##   ##  ##   ##   **
 **   ##  ## ##  ##   ##  ##  ##      ####     ###    ##   ######   ######    **
 **    ##  ###   ##   ##  ##  ##      ## ##      ##   ##   ##       ##        **
 **     #######   #####   ##   #####  ##  ##  ####    ##    #####   ##        **
 **           ##                                                    ##        **
 **                                                                           **
 **                                                ... make the atoms dance   **
 **                                                                           **
 **            Copyright (C) by CP2K developers group (2000-2025)             **
 **                      J. Chem. Phys. 152, 194103 (2020)                    **
 **                                                                           **
 *******************************************************************************

 DFT| Spin restricted Kohn-Sham (RKS) calculation                            RKS
 DFT| Multiplicity                                                             1
 DFT| Number of spin states                                                    1
 DFT| Charge                                                                   0
 DFT| Self-interaction correction (SIC)                                       NO
 DFT| Cutoffs: density                                              1.000000E-10
 DFT|          gradient                                             1.000000E-10
 DFT|          tau                                                  1.000000E-10
 DFT|          cutoff_smoothing_range                               0.000000E+00
 DFT| XC density smoothing                                                  NONE
 DFT| XC derivatives                                                          PW

 FUNCTIONAL| PBE:
 FUNCTIONAL| J.P.Perdew, K.Burke, M.Ernzerhof, Phys. Rev. Letter, vol. 77, n 18,
 FUNCTIONAL|  pp. 3865-3868, (1996)sx=0.750sc=1.000{spin unpolarized}           


 QS| Method:                                                                GAPW
 QS| Density plane wave grid type                        NON-SPHERICAL FULLSPACE
 QS| Number of grid levels:                                                    4
 QS| Density cutoff [a.u.]:                                                250.0
 QS| Multi grid cutoff [a.u.]: 1) grid level                               250.0
 QS|                           2) grid level                                83.3
 QS|                           3) grid level                                27.8
 QS|                           4) grid level                                 9.3
 QS| Grid level progression factor:                                          3.0
 QS| Relative density cutoff [a.u.]:                                        50.0
 QS| Interaction thresholds: eps_pgf_orb:                                1.0E-12
 QS|                         eps_filter_matrix:                          0.0E+00
 QS|                         eps_core_charge:                            1.0E-14
 QS|                         eps_rho_gspace:                             1.0E-12
 QS|                         eps_rho_rspace:                             1.0E-12
 QS|                         eps_gvg_rspace:                             1.0E-06
 QS|                         eps_ppl:                                    1.0E-02
 QS|                         eps_ppnl:                                   1.0E-08
 QS| GAPW|      One center basis from orbital basis primitives
 QS| GAPW|                   eps_fit:                                    1.0E-04
 QS| GAPW|                   eps_iso:                                    1.0E-12
 QS| GAPW|                   eps_svd:                                    1.0E-08
 QS| GAPW|                   eps_cpc:                                    1.0E-12
 QS| GAPW|   atom-r-grid: quadrature:                                     GC_LOG
 QS| GAPW|      atom-s-grid:  max l :                                          4
 QS| GAPW|      max_l_rho0 :                                                   2


 ATOMIC KIND INFORMATION

  1. Atomic kind: O                                     Number of atoms:       4

     Orbital Basis Set                                         aug-SZV-MOLOPT-ae

       Number of orbital shell sets:                                           2
       Number of orbital shells:                                               6
       Number of primitive Cartesian functions:                               13
       Number of Cartesian basis functions:                                   15
       Number of spherical basis functions:                                   14
       Norm type:                                                              2

       Normalised Cartesian orbitals:

                        Set   Shell   Orbital            Exponent    Coefficient

                          1       1    1s                0.123000       0.000000
                                                         0.245881       0.059902
                                                         0.536420       0.265853
                                                         1.235135       0.208956
                                                         3.210345      -0.057750
                                                        10.329320      -0.192968
                                                        52.187762      -0.183398

                          1       2    2s                0.123000      -0.253465
                                                         0.245881       0.187097
                                                         0.536420       0.063592
                                                         1.235135       0.074938
                                                         3.210345       0.000000
                                                        10.329320       0.000000
                                                        52.187762       0.000000

                          1       3    2px               0.123000       0.000000
                                                         0.245881       0.025102
                                                         0.536420       0.278668
                                                         1.235135       0.775885
                                                         3.210345       1.065175
                                                        10.329320       0.994565
                                                        52.187762       0.751716
                          1       3    2py               0.123000       0.000000
                                                         0.245881       0.025102
                                                         0.536420       0.278668
                                                         1.235135       0.775885
                                                         3.210345       1.065175
                                                        10.329320       0.994565
                                                        52.187762       0.751716
                          1       3    2pz               0.123000       0.000000
                                                         0.245881       0.025102
                                                         0.536420       0.278668
                                                         1.235135       0.775885
                                                         3.210345       1.065175
                                                        10.329320       0.994565
                                                        52.187762       0.751716

                          1       4    3px               0.123000       0.048536
                                                         0.245881       0.257066
                                                         0.536420      -0.539300
                                                         1.235135      -0.153605
                                                         3.210345       0.000000
                                                        10.329320       0.000000
                                                        52.187762       0.000000
                          1       4    3py               0.123000       0.048536
                                                         0.245881       0.257066
                                                         0.536420      -0.539300
                                                         1.235135      -0.153605
                                                         3.210345       0.000000
                                                        10.329320       0.000000
                                                        52.187762       0.000000
                          1       4    3pz               0.123000       0.048536
                                                         0.245881       0.257066
                                                         0.536420      -0.539300
                                                         1.235135      -0.153605
                                                         3.210345       0.000000
                                                        10.329320       0.000000
                                                        52.187762       0.000000

                          1       5    3dx2              0.123000       0.022065
                                                         0.245881       0.038414
                                                         0.536420       0.100211
                                                         1.235135       0.626583
                                                         3.210345       0.000000
                                                        10.329320       0.000000
                                                        52.187762       0.000000
                          1       5    3dxy              0.123000       0.038217
                                                         0.245881       0.066534
                                                         0.536420       0.173571
                                                         1.235135       1.085274
                                                         3.210345       0.000000
                                                        10.329320       0.000000
                                                        52.187762       0.000000
                          1       5    3dxz              0.123000       0.038217
                                                         0.245881       0.066534
                                                         0.536420       0.173571
                                                         1.235135       1.085274
                                                         3.210345       0.000000
                                                        10.329320       0.000000
                                                        52.187762       0.000000
                          1       5    3dy2              0.123000       0.022065
                                                         0.245881       0.038414
                                                         0.536420       0.100211
                                                         1.235135       0.626583
                                                         3.210345       0.000000
                                                        10.329320       0.000000
                                                        52.187762       0.000000
                          1       5    3dyz              0.123000       0.038217
                                                         0.245881       0.066534
                                                         0.536420       0.173571
                                                         1.235135       1.085274
                                                         3.210345       0.000000
                                                        10.329320       0.000000
                                                        52.187762       0.000000
                          1       5    3dz2              0.123000       0.022065
                                                         0.245881       0.038414
                                                         0.536420       0.100211
                                                         1.235135       0.626583
                                                         3.210345       0.000000
                                                        10.329320       0.000000
                                                        52.187762       0.000000

                          2       1    1s             1355.584234       1.459053
                                                       248.544885       2.202176
                                                        69.533902       2.892385
                                                        23.886772       2.853580
                                                         9.275933       1.577736
                                                         3.820341       0.253831

     RI Auxiliary Basis Set             RI_aug-SZV-MOLOPT-ae_N_RI_054_s_p_d_f_g_

       Number of orbital shell sets:                                          18
       Number of orbital shells:                                              18
       Number of primitive Cartesian functions:                               18
       Number of Cartesian basis functions:                                   63
       Number of spherical basis functions:                                   54
       Norm type:                                                              2

       Normalised Cartesian orbitals:

                        Set   Shell   Orbital            Exponent    Coefficient

                          1       1    1s                0.430624       0.378864

                          2       1    8px               0.484961       0.576864
                          2       1    8py               0.484961       0.576864
                          2       1    8pz               0.484961       0.576864

                          3       1   14dx2              0.571732       0.618723
                          3       1   14dxy              0.571732       1.071659
                          3       1   14dxz              0.571732       1.071659
                          3       1   14dy2              0.571732       0.618723
                          3       1   14dyz              0.571732       1.071659
                          3       1   14dz2              0.571732       0.618723

                          4       1    2s                0.852188       0.632138

                          5       1   17fx3              1.068436       1.708592
                          5       1   17fx2y             1.068436       3.820528
                          5       1   17fx2z             1.068436       3.820528
                          5       1   17fxy2             1.068436       3.820528
                          5       1   17fxyz             1.068436       6.617348
                          5       1   17fxz2             1.068436       3.820528
                          5       1   17fy3              1.068436       1.708592
                          5       1   17fy2z             1.068436       3.820528
                          5       1   17fyz2             1.068436       3.820528
                          5       1   17fz3              1.068436       1.708592

                          6       1    9px               1.238059       1.861516
                          6       1    9py               1.238059       1.861516
                          6       1    9pz               1.238059       1.861516

                          7       1   15dx2              1.724523       4.271499
                          7       1   15dxy              1.724523       7.398453
                          7       1   15dxz              1.724523       7.398453
                          7       1   15dy2              1.724523       4.271499
                          7       1   15dyz              1.724523       7.398453
                          7       1   15dz2              1.724523       4.271499

                          8       1    3s                3.004888       1.626602

                          9       1   10px               3.911991       7.842191
                          9       1   10py               3.911991       7.842191
                          9       1   10pz               3.911991       7.842191

                         10       1   18fx3              6.000838      82.971930
                         10       1   18fx2y             6.000838     185.530877
                         10       1   18fx2z             6.000838     185.530877
                         10       1   18fxy2             6.000838     185.530877
                         10       1   18fxyz             6.000838     321.348905
                         10       1   18fxz2             6.000838     185.530877
                         10       1   18fy3              6.000838      82.971930
                         10       1   18fy2z             6.000838     185.530877
                         10       1   18fyz2             6.000838     185.530877
                         10       1   18fz3              6.000838      82.971930

                         11       1    4s               10.922884       4.282162

                         12       1   11px              11.266399      29.421954
                         12       1   11py              11.266399      29.421954
                         12       1   11pz              11.266399      29.421954

                         13       1   16dx2             18.377454     268.478068
                         13       1   16dxy             18.377454     465.017654
                         13       1   16dxz             18.377454     465.017654
                         13       1   16dy2             18.377454     268.478068
                         13       1   16dyz             18.377454     465.017654
                         13       1   16dz2             18.377454     268.478068

                         14       1   12px              32.517499     110.684424
                         14       1   12py              32.517499     110.684424
                         14       1   12pz              32.517499     110.684424

                         15       1    5s               38.998048      11.122240

                         16       1   13px              93.445601     414.131881
                         16       1   13py              93.445601     414.131881
                         16       1   13pz              93.445601     414.131881

                         17       1    6s              138.126380      28.715578

                         18       1    7s              488.407219      74.045155

       Atomic covalent radius [Angstrom]:                                  0.730

       Atomic van der Waals radius [Angstrom]:                             1.520

     The atoms of this atomic kind are PAW atoms (GAPW):
       Hard Gaussian function radius:                                      1.512
       Rho0 radius:                                                        1.512
       Maximum GTO radius used for PAW projector construction:            24.566

     GAPW Soft Basis Set                                  aug-SZV-MOLOPT-ae_soft

       Number of orbital shell sets:                                           2
       Number of orbital shells:                                               6
       Number of primitive Cartesian functions:                                6
       Number of Cartesian basis functions:                                   15
       Number of spherical basis functions:                                   14
       Norm type:                                                              2

       Normalised Cartesian orbitals:

                        Set   Shell   Orbital            Exponent    Coefficient

                          1       1    1s                0.123000       0.000000
                                                         0.245881       0.059902
                                                         0.536420       0.265853
                                                         1.235135       0.208956
                                                         3.210345      -0.057750

                          1       2    2s                0.123000      -0.253465
                                                         0.245881       0.187097
                                                         0.536420       0.063592
                                                         1.235135       0.074938
                                                         3.210345       0.000000

                          1       3    2px               0.123000       0.000000
                                                         0.245881       0.025102
                                                         0.536420       0.278668
                                                         1.235135       0.775885
                                                         3.210345       1.065175
                          1       3    2py               0.123000       0.000000
                                                         0.245881       0.025102
                                                         0.536420       0.278668
                                                         1.235135       0.775885
                                                         3.210345       1.065175
                          1       3    2pz               0.123000       0.000000
                                                         0.245881       0.025102
                                                         0.536420       0.278668
                                                         1.235135       0.775885
                                                         3.210345       1.065175

                          1       4    3px               0.123000       0.048536
                                                         0.245881       0.257066
                                                         0.536420      -0.539300
                                                         1.235135      -0.153605
                                                         3.210345       0.000000
                          1       4    3py               0.123000       0.048536
                                                         0.245881       0.257066
                                                         0.536420      -0.539300
                                                         1.235135      -0.153605
                                                         3.210345       0.000000
                          1       4    3pz               0.123000       0.048536
                                                         0.245881       0.257066
                                                         0.536420      -0.539300
                                                         1.235135      -0.153605
                                                         3.210345       0.000000

                          1       5    3dx2              0.123000       0.022065
                                                         0.245881       0.038414
                                                         0.536420       0.100211
                                                         1.235135       0.626583
                                                         3.210345       0.000000
                          1       5    3dxy              0.123000       0.038217
                                                         0.245881       0.066534
                                                         0.536420       0.173571
                                                         1.235135       1.085274
                                                         3.210345       0.000000
                          1       5    3dxz              0.123000       0.038217
                                                         0.245881       0.066534
                                                         0.536420       0.173571
                                                         1.235135       1.085274
                                                         3.210345       0.000000
                          1       5    3dy2              0.123000       0.022065
                                                         0.245881       0.038414
                                                         0.536420       0.100211
                                                         1.235135       0.626583
                                                         3.210345       0.000000
                          1       5    3dyz              0.123000       0.038217
                                                         0.245881       0.066534
                                                         0.536420       0.173571
                                                         1.235135       1.085274
                                                         3.210345       0.000000
                          1       5    3dz2              0.123000       0.022065
                                                         0.245881       0.038414
                                                         0.536420       0.100211
                                                         1.235135       0.626583
                                                         3.210345       0.000000

                          2       1    1s                3.820341       0.253831

     AE Potential information for                                            ALL

       Description:                                       All-electron potential
                                          Krack, Parrinello, PCCP 2, 2105 (2000)

       Gaussian exponent of the core charge distribution:               8.154466
       Electronic configuration (s p d ...):                           4   4   0

  2. Atomic kind: C                                     Number of atoms:       4

     Orbital Basis Set                                         aug-SZV-MOLOPT-ae

       Number of orbital shell sets:                                           2
       Number of orbital shells:                                               6
       Number of primitive Cartesian functions:                               13
       Number of Cartesian basis functions:                                   15
       Number of spherical basis functions:                                   14
       Norm type:                                                              2

       Normalised Cartesian orbitals:

                        Set   Shell   Orbital            Exponent    Coefficient

                          1       1    2s                0.070000       0.000000
                                                         0.143687       0.040037
                                                         0.313471       0.177689
                                                         0.721783       0.139661
                                                         1.876046      -0.038599
                                                         6.036200      -0.128975
                                                        30.497239      -0.122578

                          1       2    3s                0.070000      -0.142268
                                                         0.143687       0.288819
                                                         0.313471       0.010360
                                                         0.721783       0.175994
                                                         1.876046       0.000000
                                                         6.036200       0.000000
                                                        30.497239       0.000000

                          1       3    3px               0.070000       0.000000
                                                         0.143687       0.012825
                                                         0.313471       0.142381
                                                         0.721783       0.396426
                                                         1.876046       0.544234
                                                         6.036200       0.508157
                                                        30.497239       0.384077
                          1       3    3py               0.070000       0.000000
                                                         0.143687       0.012825
                                                         0.313471       0.142381
                                                         0.721783       0.396426
                                                         1.876046       0.544234
                                                         6.036200       0.508157
                                                        30.497239       0.384077
                          1       3    3pz               0.070000       0.000000
                                                         0.143687       0.012825
                                                         0.313471       0.142381
                                                         0.721783       0.396426
                                                         1.876046       0.544234
                                                         6.036200       0.508157
                                                        30.497239       0.384077

                          1       4    4px               0.070000       0.076505
                                                         0.143687      -0.086104
                                                         0.313471       0.010230
                                                         0.721783       0.129894
                                                         1.876046       0.000000
                                                         6.036200       0.000000
                                                        30.497239       0.000000
                          1       4    4py               0.070000       0.076505
                                                         0.143687      -0.086104
                                                         0.313471       0.010230
                                                         0.721783       0.129894
                                                         1.876046       0.000000
                                                         6.036200       0.000000
                                                        30.497239       0.000000
                          1       4    4pz               0.070000       0.076505
                                                         0.143687      -0.086104
                                                         0.313471       0.010230
                                                         0.721783       0.129894
                                                         1.876046       0.000000
                                                         6.036200       0.000000
                                                        30.497239       0.000000

                          1       5    4dx2              0.070000       0.004316
                                                         0.143687       0.012639
                                                         0.313471       0.125057
                                                         0.721783       0.080411
                                                         1.876046       0.000000
                                                         6.036200       0.000000
                                                        30.497239       0.000000
                          1       5    4dxy              0.070000       0.007476
                                                         0.143687       0.021892
                                                         0.313471       0.216606
                                                         0.721783       0.139276
                                                         1.876046       0.000000
                                                         6.036200       0.000000
                                                        30.497239       0.000000
                          1       5    4dxz              0.070000       0.007476
                                                         0.143687       0.021892
                                                         0.313471       0.216606
                                                         0.721783       0.139276
                                                         1.876046       0.000000
                                                         6.036200       0.000000
                                                        30.497239       0.000000
                          1       5    4dy2              0.070000       0.004316
                                                         0.143687       0.012639
                                                         0.313471       0.125057
                                                         0.721783       0.080411
                                                         1.876046       0.000000
                                                         6.036200       0.000000
                                                        30.497239       0.000000
                          1       5    4dyz              0.070000       0.007476
                                                         0.143687       0.021892
                                                         0.313471       0.216606
                                                         0.721783       0.139276
                                                         1.876046       0.000000
                                                         6.036200       0.000000
                                                        30.497239       0.000000
                          1       5    4dz2              0.070000       0.004316
                                                         0.143687       0.012639
                                                         0.313471       0.125057
                                                         0.721783       0.080411
                                                         1.876046       0.000000
                                                         6.036200       0.000000
                                                        30.497239       0.000000

                          2       1    1s              742.737049       0.929185
                                                       136.180025       1.402437
                                                        38.098264       1.841991
                                                        13.087782       1.817278
                                                         5.082369       1.004768
                                                         2.093200       0.161650

     RI Auxiliary Basis Set             RI_aug-SZV-MOLOPT-ae_N_RI_048_s_p_d_f_g_

       Number of orbital shell sets:                                          14
       Number of orbital shells:                                              14
       Number of primitive Cartesian functions:                               14
       Number of Cartesian basis functions:                                   62
       Number of spherical basis functions:                                   48
       Norm type:                                                              2

       Normalised Cartesian orbitals:

                        Set   Shell   Orbital            Exponent    Coefficient

                          1       1    1s                0.182132       0.198701

                          2       1    7px               0.213594       0.206979
                          2       1    7py               0.213594       0.206979
                          2       1    7pz               0.213594       0.206979

                          3       1   10dx2              0.381125       0.304282
                          3       1   10dxy              0.381125       0.527033
                          3       1   10dxz              0.381125       0.527033
                          3       1   10dy2              0.381125       0.304282
                          3       1   10dyz              0.381125       0.527033
                          3       1   10dz2              0.381125       0.304282

                          4       1    2s                0.433905       0.381027

                          5       1   12fx3              0.524446       0.344573
                          5       1   12fx2y             0.524446       0.770488
                          5       1   12fx2z             0.524446       0.770488
                          5       1   12fxy2             0.524446       0.770488
                          5       1   12fxyz             0.524446       1.334524
                          5       1   12fxz2             0.524446       0.770488
                          5       1   12fy3              0.524446       0.344573
                          5       1   12fy2z             0.524446       0.770488
                          5       1   12fyz2             0.524446       0.770488
                          5       1   12fz3              0.524446       0.344573

                          6       1    8px               0.915857       1.277099
                          6       1    8py               0.915857       1.277099
                          6       1    8pz               0.915857       1.277099

                          7       1   14gx4              1.217666       1.912659
                          7       1   14gx3y             1.217666       5.060419
                          7       1   14gx3z             1.217666       5.060419
                          7       1   14gx2y2            1.217666       6.532973
                          7       1   14gx2yz            1.217666      11.315442
                          7       1   14gx2z2            1.217666       6.532973
                          7       1   14gxy3             1.217666       5.060419
                          7       1   14gxy2z            1.217666      11.315442
                          7       1   14gxyz2            1.217666      11.315442
                          7       1   14gxz3             1.217666       5.060419
                          7       1   14gy4              1.217666       1.912659
                          7       1   14gy3z             1.217666       5.060419
                          7       1   14gy2z2            1.217666       6.532973
                          7       1   14gyz3             1.217666       5.060419
                          7       1   14gz4              1.217666       1.912659

                          8       1   11dx2              1.581488       3.670921
                          8       1   11dxy              1.581488       6.358221
                          8       1   11dxz              1.581488       6.358221
                          8       1   11dy2              1.581488       3.670921
                          8       1   11dyz              1.581488       6.358221
                          8       1   11dz2              1.581488       3.670921

                          9       1    3s                1.620693       1.023730

                         10       1   13fx3              2.677157      13.496481
                         10       1   13fx2y             2.677157      30.179050
                         10       1   13fx2z             2.677157      30.179050
                         10       1   13fxy2             2.677157      30.179050
                         10       1   13fxyz             2.677157      52.271648
                         10       1   13fxz2             2.677157      30.179050
                         10       1   13fy3              2.677157      13.496481
                         10       1   13fy2z             2.677157      30.179050
                         10       1   13fyz2             2.677157      30.179050
                         10       1   13fz3              2.677157      13.496481

                         11       1    4s                5.999661       2.732154

                         12       1    9px               9.284861      23.102519
                         12       1    9py               9.284861      23.102519
                         12       1    9pz               9.284861      23.102519

                         13       1    5s               22.224963       7.295262

                         14       1    6s               82.329769      19.479498

       Atomic covalent radius [Angstrom]:                                  0.770

       Atomic van der Waals radius [Angstrom]:                             1.700

     The atoms of this atomic kind are PAW atoms (GAPW):
       Hard Gaussian function radius:                                      1.512
       Rho0 radius:                                                        1.512
       Maximum GTO radius used for PAW projector construction:            24.566

     GAPW Soft Basis Set                                  aug-SZV-MOLOPT-ae_soft

       Number of orbital shell sets:                                           2
       Number of orbital shells:                                               6
       Number of primitive Cartesian functions:                                6
       Number of Cartesian basis functions:                                   15
       Number of spherical basis functions:                                   14
       Norm type:                                                              2

       Normalised Cartesian orbitals:

                        Set   Shell   Orbital            Exponent    Coefficient

                          1       1    2s                0.070000       0.000000
                                                         0.143687       0.040037
                                                         0.313471       0.177689
                                                         0.721783       0.139661
                                                         1.876046      -0.038599

                          1       2    3s                0.070000      -0.142268
                                                         0.143687       0.288819
                                                         0.313471       0.010360
                                                         0.721783       0.175994
                                                         1.876046       0.000000

                          1       3    3px               0.070000       0.000000
                                                         0.143687       0.012825
                                                         0.313471       0.142381
                                                         0.721783       0.396426
                                                         1.876046       0.544234
                          1       3    3py               0.070000       0.000000
                                                         0.143687       0.012825
                                                         0.313471       0.142381
                                                         0.721783       0.396426
                                                         1.876046       0.544234
                          1       3    3pz               0.070000       0.000000
                                                         0.143687       0.012825
                                                         0.313471       0.142381
                                                         0.721783       0.396426
                                                         1.876046       0.544234

                          1       4    4px               0.070000       0.076505
                                                         0.143687      -0.086104
                                                         0.313471       0.010230
                                                         0.721783       0.129894
                                                         1.876046       0.000000
                          1       4    4py               0.070000       0.076505
                                                         0.143687      -0.086104
                                                         0.313471       0.010230
                                                         0.721783       0.129894
                                                         1.876046       0.000000
                          1       4    4pz               0.070000       0.076505
                                                         0.143687      -0.086104
                                                         0.313471       0.010230
                                                         0.721783       0.129894
                                                         1.876046       0.000000

                          1       5    4dx2              0.070000       0.004316
                                                         0.143687       0.012639
                                                         0.313471       0.125057
                                                         0.721783       0.080411
                                                         1.876046       0.000000
                          1       5    4dxy              0.070000       0.007476
                                                         0.143687       0.021892
                                                         0.313471       0.216606
                                                         0.721783       0.139276
                                                         1.876046       0.000000
                          1       5    4dxz              0.070000       0.007476
                                                         0.143687       0.021892
                                                         0.313471       0.216606
                                                         0.721783       0.139276
                                                         1.876046       0.000000
                          1       5    4dy2              0.070000       0.004316
                                                         0.143687       0.012639
                                                         0.313471       0.125057
                                                         0.721783       0.080411
                                                         1.876046       0.000000
                          1       5    4dyz              0.070000       0.007476
                                                         0.143687       0.021892
                                                         0.313471       0.216606
                                                         0.721783       0.139276
                                                         1.876046       0.000000
                          1       5    4dz2              0.070000       0.004316
                                                         0.143687       0.012639
                                                         0.313471       0.125057
                                                         0.721783       0.080411
                                                         1.876046       0.000000

                          2       1    1s                2.093200       0.161650

     AE Potential information for                                            ALL

       Description:                                       All-electron potential
                                          Krack, Parrinello, PCCP 2, 2105 (2000)

       Gaussian exponent of the core charge distribution:               4.109048
       Electronic configuration (s p d ...):                           4   2   0

  3. Atomic kind: H                                     Number of atoms:       4

     Orbital Basis Set                                         aug-SZV-MOLOPT-ae

       Number of orbital shell sets:                                           1
       Number of orbital shells:                                               4
       Number of primitive Cartesian functions:                                7
       Number of Cartesian basis functions:                                    6
       Number of spherical basis functions:                                    6
       Norm type:                                                              2

       Normalised Cartesian orbitals:

                        Set   Shell   Orbital            Exponent    Coefficient

                          1       1    1s                0.065428       0.000000
                                                         0.100112       0.016532
                                                         0.243077       0.102760
                                                         0.625955       0.185857
                                                         1.822143       0.188385
                                                         6.513144       0.143430
                                                        35.523221       0.095030

                          1       2    2s                0.065428       0.083549
                                                         0.100112       0.009605
                                                         0.243077       0.002524
                                                         0.625955       0.013457
                                                         1.822143       0.000000
                                                         6.513144       0.000000
                                                        35.523221       0.000000

                          1       3    3s                0.065428       0.037407
                                                         0.100112      -0.169070
                                                         0.243077      -0.018899
                                                         0.625955       0.012806
                                                         1.822143       0.000000
                                                         6.513144       0.000000
                                                        35.523221       0.000000

                          1       4    2px               0.065428       0.059908
                                                         0.100112      -0.023770
                                                         0.243077       0.000032
                                                         0.625955       0.017779
                                                         1.822143       0.000000
                                                         6.513144       0.000000
                                                        35.523221       0.000000
                          1       4    2py               0.065428       0.059908
                                                         0.100112      -0.023770
                                                         0.243077       0.000032
                                                         0.625955       0.017779
                                                         1.822143       0.000000
                                                         6.513144       0.000000
                                                        35.523221       0.000000
                          1       4    2pz               0.065428       0.059908
                                                         0.100112      -0.023770
                                                         0.243077       0.000032
                                                         0.625955       0.017779
                                                         1.822143       0.000000
                                                         6.513144       0.000000
                                                        35.523221       0.000000

     RI Auxiliary Basis Set             RI_aug-SZV-MOLOPT-ae_N_RI_007_s_p_d_f_g_

       Number of orbital shell sets:                                           5
       Number of orbital shells:                                               5
       Number of primitive Cartesian functions:                                5
       Number of Cartesian basis functions:                                    7
       Number of spherical basis functions:                                    7
       Norm type:                                                              2

       Normalised Cartesian orbitals:

                        Set   Shell   Orbital            Exponent    Coefficient

                          1       1    1s                0.148777       0.170731

                          2       1    5px               0.367452       0.407794
                          2       1    5py               0.367452       0.407794
                          2       1    5pz               0.367452       0.407794

                          3       1    2s                0.510503       0.430437

                          4       1    3s                1.106366       0.768837

                          5       1    4s                5.955292       2.716986

       Atomic covalent radius [Angstrom]:                                  0.320

       Atomic van der Waals radius [Angstrom]:                             1.090

     The atoms of this atomic kind are PAW atoms (GAPW):
       Hard Gaussian function radius:                                      1.200
       Rho0 radius:                                                        1.200
       Maximum GTO radius used for PAW projector construction:            24.566

     GAPW Soft Basis Set                                  aug-SZV-MOLOPT-ae_soft

       Number of orbital shell sets:                                           1
       Number of orbital shells:                                               4
       Number of primitive Cartesian functions:                                6
       Number of Cartesian basis functions:                                    6
       Number of spherical basis functions:                                    6
       Norm type:                                                              2

       Normalised Cartesian orbitals:

                        Set   Shell   Orbital            Exponent    Coefficient

                          1       1    1s                0.065428       0.000000
                                                         0.100112       0.016532
                                                         0.243077       0.102760
                                                         0.625955       0.185857
                                                         1.822143       0.188385
                                                         6.513144       0.000000

                          1       2    2s                0.065428       0.083549
                                                         0.100112       0.009605
                                                         0.243077       0.002524
                                                         0.625955       0.013457
                                                         1.822143       0.000000
                                                         6.513144       0.000000

                          1       3    3s                0.065428       0.037407
                                                         0.100112      -0.169070
                                                         0.243077      -0.018899
                                                         0.625955       0.012806
                                                         1.822143       0.000000
                                                         6.513144       0.000000

                          1       4    2px               0.065428       0.059908
                                                         0.100112      -0.023770
                                                         0.243077       0.000032
                                                         0.625955       0.017779
                                                         1.822143       0.000000
                                                         6.513144       0.000000
                          1       4    2py               0.065428       0.059908
                                                         0.100112      -0.023770
                                                         0.243077       0.000032
                                                         0.625955       0.017779
                                                         1.822143       0.000000
                                                         6.513144       0.000000
                          1       4    2pz               0.065428       0.059908
                                                         0.100112      -0.023770
                                                         0.243077       0.000032
                                                         0.625955       0.017779
                                                         1.822143       0.000000
                                                         6.513144       0.000000

     AE Potential information for                                            ALL

       Description:                                       All-electron potential
                                          Krack, Parrinello, PCCP 2, 2105 (2000)

       Gaussian exponent of the core charge distribution:              12.500000
       Electronic configuration (s p d ...):                           1   0   0

  4. Atomic kind: N                                     Number of atoms:       4

     Orbital Basis Set                                         aug-SZV-MOLOPT-ae

       Number of orbital shell sets:                                           2
       Number of orbital shells:                                               6
       Number of primitive Cartesian functions:                               13
       Number of Cartesian basis functions:                                   15
       Number of spherical basis functions:                                   14
       Norm type:                                                              2

       Normalised Cartesian orbitals:

                        Set   Shell   Orbital            Exponent    Coefficient

                          1       1    1s                0.090000       0.000000
                                                         0.184684       0.048330
                                                         0.402911       0.214496
                                                         0.927724       0.168591
                                                         2.411326      -0.046594
                                                         7.758467      -0.155691
                                                        39.198808      -0.147969

                          1       2    2s                0.090000      -0.118940
                                                         0.184684       0.080942
                                                         0.402911      -0.164238
                                                         0.927724      -0.024406
                                                         2.411326       0.000000
                                                         7.758467       0.000000
                                                        39.198808       0.000000

                          1       3    2px               0.090000       0.000000
                                                         0.184684       0.017552
                                                         0.402911       0.194858
                                                         0.927724       0.542535
                                                         2.411326       0.744820
                                                         7.758467       0.695446
                                                        39.198808       0.525635
                          1       3    2py               0.090000       0.000000
                                                         0.184684       0.017552
                                                         0.402911       0.194858
                                                         0.927724       0.542535
                                                         2.411326       0.744820
                                                         7.758467       0.695446
                                                        39.198808       0.525635
                          1       3    2pz               0.090000       0.000000
                                                         0.184684       0.017552
                                                         0.402911       0.194858
                                                         0.927724       0.542535
                                                         2.411326       0.744820
                                                         7.758467       0.695446
                                                        39.198808       0.525635

                          1       4    3px               0.090000      -0.032237
                                                         0.184684      -0.080882
                                                         0.402911       0.112185
                                                         0.927724       1.067728
                                                         2.411326       0.000000
                                                         7.758467       0.000000
                                                        39.198808       0.000000
                          1       4    3py               0.090000      -0.032237
                                                         0.184684      -0.080882
                                                         0.402911       0.112185
                                                         0.927724       1.067728
                                                         2.411326       0.000000
                                                         7.758467       0.000000
                                                        39.198808       0.000000
                          1       4    3pz               0.090000      -0.032237
                                                         0.184684      -0.080882
                                                         0.402911       0.112185
                                                         0.927724       1.067728
                                                         2.411326       0.000000
                                                         7.758467       0.000000
                                                        39.198808       0.000000

                          1       5    3dx2              0.090000      -0.010633
                                                         0.184684      -0.050923
                                                         0.402911       0.103346
                                                         0.927724      -0.777682
                                                         2.411326       0.000000
                                                         7.758467       0.000000
                                                        39.198808       0.000000
                          1       5    3dxy              0.090000      -0.018417
                                                         0.184684      -0.088201
                                                         0.402911       0.179000
                                                         0.927724      -1.346985
                                                         2.411326       0.000000
                                                         7.758467       0.000000
                                                        39.198808       0.000000
                          1       5    3dxz              0.090000      -0.018417
                                                         0.184684      -0.088201
                                                         0.402911       0.179000
                                                         0.927724      -1.346985
                                                         2.411326       0.000000
                                                         7.758467       0.000000
                                                        39.198808       0.000000
                          1       5    3dy2              0.090000      -0.010633
                                                         0.184684      -0.050923
                                                         0.402911       0.103346
                                                         0.927724      -0.777682
                                                         2.411326       0.000000
                                                         7.758467       0.000000
                                                        39.198808       0.000000
                          1       5    3dyz              0.090000      -0.018417
                                                         0.184684      -0.088201
                                                         0.402911       0.179000
                                                         0.927724      -1.346985
                                                         2.411326       0.000000
                                                         7.758467       0.000000
                                                        39.198808       0.000000
                          1       5    3dz2              0.090000      -0.010633
                                                         0.184684      -0.050923
                                                         0.402911       0.103346
                                                         0.927724      -0.777682
                                                         2.411326       0.000000
                                                         7.758467       0.000000
                                                        39.198808       0.000000

                          2       1    1s             1027.828458       1.185541
                                                       188.451223       1.789359
                                                        52.721861       2.350183
                                                        18.111382       2.318652
                                                         7.033180       1.281976
                                                         2.896652       0.206248

     RI Auxiliary Basis Set             RI_aug-SZV-MOLOPT-ae_N_RI_043_s_p_d_f_g_

       Number of orbital shell sets:                                          15
       Number of orbital shells:                                              15
       Number of primitive Cartesian functions:                               15
       Number of Cartesian basis functions:                                   49
       Number of spherical basis functions:                                   43
       Norm type:                                                              2

[...]
 powell_optimize                 763496 11.0    1.102    1.203    1.102    1.203
 create_and_init_bs_env_for_gw        1  6.0    0.000    0.000    1.168    1.196
 cp2k_distribution_to_z_slices       85  9.0    0.317    0.353    1.133    1.163
 eigensolver_symm                    84  6.0    0.006    0.006    1.127    1.131
 calc_screening_functions             1 10.0    0.406    0.425    1.023    1.125
 transfer_rs2pw_90                   85  9.0    0.189    0.219    0.922    1.108
 G_times_3c                          60  8.0    0.000    0.000    1.091    1.091
 pw_derive                          759 11.3    1.003    1.060    1.003    1.060
 mp_sum_dv                         6135  8.7    0.994    1.056    0.994    1.056
 fft_wrap_pw1pw2_90                 170 10.5    0.026    0.028    0.954    1.015
 cp_fm_diag_elpa                     90  7.1    0.000    0.000    1.009    1.013
 dbm_multiply                       408 16.4    0.888    1.013    0.888    1.013
 pw_gather_p                        847 11.8    0.873    0.994    0.873    0.994
 cp_fm_diag_elpa_base                90  8.0    0.952    0.983    0.964    0.991
 dbt_tas_distribution_new          1132 14.3    0.522    0.538    0.958    0.968
 dbt_tas_estimate_result_nze        204 12.9    0.036    0.047    0.932    0.936
 pw_copy                           1270 10.6    0.877    0.923    0.877    0.923
 dbt_tas_create_split              1384 15.1    0.001    0.001    0.853    0.859
 dbt_tas_create_split_rows_or_c    1384 16.1    0.003    0.003    0.852    0.858
 copy_dbcsr_to_fm                   278  8.3    0.003    0.003    0.792    0.831
 dbcsr_complete_redistribute        598  9.4    0.017    0.022    0.782    0.791
 calc_pair_dist_radii                 1 10.0    0.253    0.259    0.737    0.789
 abc_contract_xsmm                83790 10.6    0.328    0.758    0.328    0.758
 reshape_mm_small                   408 14.4    0.028    0.029    0.706    0.712
 mp_isend_dv                      23359 13.7    0.232    0.693    0.232    0.693
 write_matrix                        91  8.0    0.000    0.000    0.534    0.688
 fm_write                           121  9.0    0.006    0.279    0.479    0.678
 rs_grid_zero                       427 11.2    0.609    0.667    0.609    0.667
 transfer_rs2pw_10                   85  9.0    0.086    0.095    0.487    0.660
 parallel_gemm_cfm                  283 10.4    0.000    0.000    0.627    0.647
 parallel_gemm_cfm_cosma            283 11.4    0.627    0.647    0.627    0.647
 parallel_gemm_fm                   352  8.2    0.000    0.000    0.598    0.639
 parallel_gemm_fm_cosma             352  9.2    0.598    0.639    0.598    0.639
 fm_to_local_tensor                 152  8.0    0.001    0.002    0.636    0.639
 transfer_pw2rs_10                   85 12.0    0.136    0.150    0.524    0.638
 rs_gather_matrices                  85 10.0    0.002    0.003    0.515    0.637
 compute_V_xc                         1  7.0    0.000    0.000    0.633    0.633
 pw_poisson_set                      86  9.0    0.001    0.001    0.578    0.613
 pw_copy_to_array                   847 11.8    0.498    0.610    0.498    0.610
 compute_cfm_W_ikp_freq_j            30 10.0    0.001    0.001    0.539    0.541
 pw_copy_from_array                 929 12.1    0.432    0.530    0.432    0.530
 grid_integrate_task_list            85 10.0    0.085    0.519    0.085    0.519
 dbt_tas_mm_2                       152 15.2    0.000    0.000    0.510    0.511
 calculate_dm_sparse                 84  6.0    0.000    0.000    0.371    0.511
 cp_dbcsr_plus_fm_fm_t               84  7.0    0.001    0.001    0.370    0.510
 cp_fm_write_unformatted            126  9.9    0.487    0.491    0.487    0.495
 mp_sum_l                          3097 12.0    0.404    0.473    0.404    0.473
 pw_integral_ab_c1d_c1d_gs           85  9.0    0.373    0.381    0.434    0.469
 calculate_rho_atom_coeff            85  6.0    0.036    0.047    0.457    0.459
 convert_to_new_pgrid              1224 14.4    0.133    0.176    0.372    0.458
 mp_isend_dm3                      3072 11.5    0.056    0.446    0.056    0.446
 mp_comm_split_direct              1386 17.1    0.442    0.444    0.443    0.444
 dbm_redistribute                   912 15.2    0.339    0.443    0.339    0.443
 dbcsr_desymmetrize_deep            284  9.3    0.004    0.005    0.374    0.412
 reshape_mm_compatible              408 14.4    0.004    0.005    0.393    0.405
 pw_axpy                            845  9.3    0.377    0.402    0.377    0.402
 mp_cart_create                    2942 14.4    0.376    0.391    0.378    0.393
 mp_alltoall_i11v                  2078 10.4    0.385    0.386    0.385    0.386
 copy_fm_to_dbcsr                   320  8.5    0.001    0.001    0.373    0.379
 pw_poisson_rebuild                  85  9.0    0.000    0.000    0.365    0.377
 ps_wavelet_create                    1 10.0    0.000    0.000    0.365    0.377
 RS_z_slice_distribution              1 11.0    0.249    0.273    0.365    0.377
 dbt_create_matrix                  152  9.0    0.001    0.001    0.365    0.368
 mp_bcast_dm                       2721  9.0    0.342    0.362    0.342    0.362
 G_occ_vir                          121  8.0    0.001    0.005    0.314    0.346
 change_split                       612 14.9    0.001    0.002    0.337    0.344
 dbt_distribution_new_expert        316 10.5    0.002    0.002    0.337    0.337
 check_sparsity_3c                    1  7.0    0.000    0.000    0.329    0.329
 qs_energies_init_hamiltonians        1  3.0    0.000    0.000    0.323    0.323
 init_scf_run                         1  3.0    0.000    0.000    0.323    0.323
 build_core_hamiltonian_matrix        1  4.0    0.000    0.000    0.321    0.321
 overlap_condnum                      1  5.0    0.000    0.000    0.318    0.320
 scf_env_initial_rho_setup            1  4.0    0.000    0.000    0.312    0.312
 dbcsr_multiply_generic              84  8.0    0.003    0.003    0.167    0.305
 arnoldi_conjugate_gradient           5  6.0    0.006    0.008    0.297    0.297
 Vh_1c_gg_integrals                  85  8.0    0.015    0.196    0.233    0.275
 fft_wrap_pw1pw2_30                 170 10.5    0.005    0.005    0.254    0.268
 dbt_copy                           420 10.0    0.002    0.002    0.192    0.262
 pw_zero                            506 10.3    0.224    0.235    0.224    0.235
 dbt_tas_mm_3N                       50 15.5    0.000    0.000    0.202    0.231
 dbt_reshape                        256 10.9    0.058    0.066    0.161    0.228
 mp_comm_dup                       1184 17.5    0.219    0.226    0.220    0.227
 multiply_cannon                     84  9.0    0.005    0.005    0.073    0.211
 dbt_tas_mm_1N                      108 15.5    0.000    0.000    0.153    0.204
 compute_QP_energies                  1  7.0    0.000    0.000    0.201    0.201
 mp_alltoall_i22                    882 10.4    0.152    0.199    0.152    0.199
 update_ks_atom                      85  8.0    0.032    0.065    0.174    0.197
 multiply_cannon_loop                84 10.0    0.005    0.005    0.058    0.195
 multiply_fm_W_MIC_time_with_Mi       2  9.0    0.000    0.000    0.195    0.195
 get_Sigma_x                          1  7.0    0.000    0.000    0.193    0.193
 compute_Sigma_x                      1  8.0    0.000    0.000    0.193    0.193
 mp_irecv_dv                      22788 13.7    0.021    0.193    0.021    0.193
 mp_isendrecv_dv                  26860 12.0    0.041    0.189    0.041    0.189
 qs_init_subsys                       1  2.0    0.001    0.001    0.183    0.183
 mp_max_d                            90  7.0    0.147    0.181    0.147    0.181
 self_consistency_check              84  5.0    0.000    0.000    0.147    0.181
 cp_sm_mix                           84  6.0    0.000    0.000    0.147    0.181
 mp_waitall_2                      2241 16.1    0.115    0.180    0.115    0.180
 qs_env_setup                         1  3.0    0.000    0.000    0.179    0.180
 qs_env_rebuild_pw_env                2  3.5    0.000    0.000    0.178    0.180
 pw_env_rebuild                       1  5.0    0.000    0.000    0.178    0.179
 dbcsr_sym_matrix_vector_mult      1935  7.0    0.014    0.015    0.172    0.177
 multiply_cannon_metrocomm3        1680 11.0    0.002    0.002    0.037    0.169
 dbt_tas_replicate                  408 14.4    0.024    0.028    0.149    0.163
 pw_grid_setup                        4  6.0    0.000    0.000    0.161    0.162
 pw_grid_setup_internal               4  7.0    0.002    0.003    0.161    0.162
 mp_max_i                           964  6.5    0.130    0.162    0.130    0.162
 to_ikp_and_mo                       62  8.0    0.000    0.000    0.160    0.160
 mp_alltoall_i                     1571 14.3    0.146    0.160    0.146    0.160
 dbt_tas_mm_3T                       98 15.5    0.000    0.000    0.131    0.160
 fm_Gamma_ao_to_cfm_ikp_mo           62  9.0    0.000    0.000    0.150    0.155
 hybrid_alltoall_any                452 10.9    0.002    0.002    0.143    0.150
 dbt_create_new                     158 10.0    0.001    0.002    0.144    0.144
 multiply_cannon_metrocomm4        1596 11.0    0.002    0.003    0.007    0.136
 dbt_communicate_buffer             256 11.9    0.001    0.002    0.066    0.133
 fft_wrap_pw1pw2_10                 170 10.5    0.001    0.002    0.127    0.132
 integrate_four_center_load          85 10.0    0.000    0.000    0.112    0.126
 hfx_load_balance                     1 11.0    0.000    0.000    0.111    0.126
 dbcsr_add_d                       3870  8.0    0.002    0.002    0.037    0.125
 cp_cfm_cholesky_decompose           35 10.7    0.122    0.124    0.122    0.124
 dbcsr_add_anytype                 3870  9.0    0.005    0.016    0.035    0.123
 compute_fm_chi_Gamma_freq           30 10.0    0.000    0.000    0.116    0.122
 check_for_restart_files              1  7.0    0.095    0.122    0.095    0.122
 pw_grid_sort                         4  8.0    0.082    0.085    0.111    0.118
 calculate_rho0_atom                340  9.0    0.111    0.114    0.111    0.114
 hfx_load_balance_range               1 12.0    0.000    0.000    0.099    0.113
 mp_cart_sub                        572 10.3    0.111    0.112    0.111    0.112
 dbt_tas_communicate_buffer         816 16.7    0.011    0.012    0.083    0.111
 setup_time_and_frequency_minim       1  7.0    0.000    0.000    0.100    0.106
 cp_cfm_cholesky_invert              31 11.0    0.098    0.102    0.098    0.102
 scale_and_distribute               170 10.0    0.072    0.098    0.072    0.098
 dbcsr_finalize                    7112 11.3    0.012    0.026    0.051    0.098
 create_qs_kind_set                   1  2.0    0.000    0.000    0.097    0.097
 read_qs_kind                         4  3.0    0.039    0.048    0.097    0.097
 dbt_tas_merge                      152 14.2    0.012    0.015    0.073    0.096
 vxc_of_r_new                       672  9.0    0.001    0.014    0.004    0.091
 cp_cfm_geeig                         2  7.0    0.000    0.000    0.087    0.087
 dbt_tas_reshape                    408 15.0    0.003    0.003    0.071    0.084
 cp_fm_power                          3  8.7    0.001    0.001    0.084    0.084
 fill_fm_Sigma_c_Gamma_time           1  8.0    0.000    0.000    0.083    0.083
 mp_irecv_dm3                      3072 11.5    0.010    0.080    0.010    0.080
 dbt_pgrid_create_expert            320 11.5    0.001    0.001    0.074    0.077
 pw_scale                           337  9.5    0.046    0.071    0.046    0.071
 cp_fm_symm                          84  7.0    0.064    0.070    0.064    0.070
 dbcsr_col_vec_to_rep_row          1935  8.0    0.006    0.007    0.059    0.069
 dbt_tas_merge_communicate_buff     152 15.2    0.001    0.001    0.044    0.068
 make_m2s                           168  9.0    0.003    0.003    0.063    0.067
 dos_pdos_ldos                        1  5.0    0.000    0.000    0.061    0.066
 integrate_four_center_dist_KS       85 10.0    0.006    0.008    0.064    0.065
 dbt_tas_replicate_alltoall         256 15.5    0.000    0.000    0.052    0.064
 dbcsr_rep_row_to_rep_col_vec      1935  8.0    0.005    0.005    0.040    0.061
 dbt_tas_mp_comm                    204 12.9    0.001    0.001    0.058    0.061
 parser_read_line                 17041  4.0    0.003    0.003    0.058    0.059
 cp_fm_redistribute_end              90  8.1    0.031    0.058    0.032    0.058
 rs_scatter_matrices                 85  7.0    0.001    0.001    0.055    0.058
 integrate_four_center_getP          85 10.0    0.007    0.008    0.055    0.057
 parser_read_line_low                29  5.0    0.001    0.015    0.055    0.057
 mp_rank_compare                   1776 13.0    0.052    0.056    0.052    0.056
 broadcast_input_information         29  6.0    0.005    0.005    0.054    0.055
 scf_post_calculation_gpw             1  3.0    0.000    0.000    0.054    0.054
 write_available_results              1  4.0    0.000    0.000    0.054    0.054
 write_mo_free_results                1  5.0    0.004    0.005    0.053    0.054
 dbt_tas_replicate_communicate_     256 15.5    0.001    0.001    0.032    0.049
 create_and_init_bs_env               1  5.0    0.000    0.000    0.047    0.047
 dbcsr_iterator_start             29383  9.2    0.025    0.035    0.031    0.046
 mp_bcast_dv                       1937  9.0    0.038    0.045    0.038    0.045
 mp_sum_i                           568 14.1    0.040    0.044    0.040    0.044
 dbcsr_merge_all                   5157 12.4    0.018    0.033    0.025    0.044
 dbm_reserve_blocks                2128 15.5    0.034    0.043    0.034    0.043
 dbt_tas_reshape_alltoall           408 16.0    0.000    0.000    0.035    0.042
 dbm_add                            408 14.4    0.027    0.042    0.027    0.042
 diagonalize_ks_matrix                1  6.0    0.000    0.000    0.039    0.039
 cp_fm_geeig_canon                    1  7.0    0.000    0.000    0.039    0.039
 mp_bcast_i_src                     116  7.0    0.034    0.039    0.034    0.039
 dbt_tas_reserve_blocks_index      1720 14.6    0.001    0.002    0.030    0.038
 get_l_sq_wghts_cos_tf_t_to_w         1  8.0    0.035    0.037    0.035    0.037
 get_l_sq_wghts_sin_tf_t_to_w         1  8.0    0.034    0.036    0.034    0.036
 make_images                        168 10.0    0.004    0.005    0.031    0.035
 sort_shells                          4  9.0    0.029    0.033    0.029    0.033
 dbt_nd_mp_comm                     152 10.0    0.000    0.000    0.030    0.033
 get_l_sq_wghts_cos_tf_w_to_t         1  8.0    0.030    0.031    0.031    0.033
 dbcsr_work_create                 5945 11.3    0.010    0.022    0.015    0.032
 compute_MinvVsqrt_Vsqrt              1  9.0    0.000    0.000    0.030    0.030
 build_3c_integrals_put_dbcsr      1920 10.5    0.013    0.030    0.013    0.030
 write_mo_set_to_restart             84  5.0    0.001    0.014    0.016    0.030
 global_matrix_to_local_matrix      152  9.0    0.001    0.001    0.025    0.029
 local_dbt_to_global_mat             91  8.0    0.000    0.000    0.027    0.029
 mixing_init                          1  5.0    0.026    0.028    0.028    0.029
 xc_pw_smooth                        84 10.0    0.000    0.000    0.025    0.027
 mp_maxloc_dv                      1625  1.0    0.023    0.027    0.023    0.027
 RI_2c_integral_mat                   4  9.8    0.000    0.000    0.025    0.026
 mp_send_dv                         126 10.9    0.001    0.026    0.001    0.026
 dbt_tas_copy                       134 11.6    0.014    0.016    0.022    0.026
 dbt_reserve_blocks_index           770 12.3    0.001    0.001    0.021    0.026
 dbcsr_copy                        8618  7.7    0.015    0.016    0.024    0.026
 dbcsr_iterator_stop              29383  9.2    0.014    0.020    0.017    0.023
 offload_free_buffer                 93  8.5    0.015    0.023    0.015    0.023
 dbcsr_work_destroy_all            5945 12.2    0.007    0.016    0.010    0.023
 dbcsr_create_new                 12530  9.3    0.016    0.017    0.021    0.023
 hirshfeld_integration                1  6.0    0.001    0.007    0.022    0.022
 dbcsr_crop_matrix                  504 10.0    0.002    0.002    0.021    0.022
 make_images_sizes                  168 11.0    0.000    0.000    0.018    0.022
 mp_alltoall_i44                    168 12.0    0.018    0.022    0.018    0.022
 pw_grid_remap                        4  8.0    0.003    0.004    0.017    0.021
 local_matrix_to_global_matrix       91  9.0    0.000    0.000    0.018    0.020
 mp_recv_dv                        2778 10.9    0.000    0.020    0.000    0.020
 dbt_crop                           194 11.0    0.011    0.013    0.016    0.019
 dbt_tas_reshape_communicate_bu     408 16.0    0.001    0.001    0.009    0.019
 mp_bcast_am_src                     29  7.0    0.014    0.017    0.015    0.018
 dbt_tas_reshape_buffer_obtain      408 16.0    0.013    0.013    0.017    0.018
 mp_sum_im3                           6  9.5    0.014    0.018    0.014    0.018
 cp_fm_redistribute_start            90  8.1    0.004    0.004    0.013    0.018
 calculate_hirshfeld_normalizat       1  6.0    0.001    0.008    0.017    0.018
 cp_fm_uplo_to_full                  93  9.1    0.012    0.018    0.012    0.018
 alloc_block_3c                     138 10.5    0.005    0.005    0.015    0.017
 dbcsr_copy_submatrix               504 11.0    0.002    0.002    0.016    0.017
 dbt_tas_merge_alltoall             152 15.2    0.000    0.000    0.014    0.016
 write_mo_set_low                     5  6.0    0.000    0.000    0.015    0.016
 dbt_reserve_blocks_index_array     480 11.9    0.001    0.001    0.012    0.016
 dbcsr_data_new                   57969 11.7    0.009    0.016    0.009    0.016
 mp_bcast_b_src                     174  7.6    0.010    0.016    0.010    0.016
 compute_max_radius                   1  6.0    0.014    0.015    0.014    0.015
 pw_grid_assign                       4  8.0    0.013    0.014    0.014    0.014
 mp_bcast_av                        813  1.0    0.005    0.007    0.012    0.014
 dbcsr_data_release               92663 11.3    0.010    0.014    0.010    0.014
 dbcsr_filter_anytype               729  9.8    0.002    0.002    0.012    0.013
 mp_comm_free                      6141 13.7    0.012    0.013    0.012    0.013
 multiply_cannon_metrocomm1        1680 11.0    0.001    0.001    0.003    0.013
 restraint_control                    1  2.0    0.000    0.000    0.013    0.013
 write_dos_pdos                       2  6.0    0.000    0.013    0.000    0.013
 dbt_tas_reserve_blocks_templat     542 13.6    0.001    0.001    0.011    0.013
 send_sizes_2                       152 10.0    0.000    0.000    0.009    0.012
 create_fast_col_vec_access        3870  8.0    0.007    0.008    0.011    0.012
 cp_cfm_uplo_to_full                 31 11.0    0.000    0.000    0.007    0.012
 send_sizes_1                       152 10.0    0.000    0.000    0.009    0.012
 cp_cfm_transpose                    31 12.0    0.007    0.012    0.007    0.012
 -------------------------------------------------------------------------------

 The number of warnings for this run is : 1
 
 -------------------------------------------------------------------------------
  **** **** ******  **  PROGRAM ENDED AT                 2025-05-27 10:41:49.803
 ***** ** ***  *** **   PROGRAM RAN ON                                  n2cn0355
 **    ****   ******    PROGRAM RAN BY                                  metdyn02
 ***** **    ** ** **   PROGRAM PROCESS ID                                 88606
  **** **  *******  **  PROGRAM STOPPED IN /scratch/hpc-prf-metdyn/metdyn02_Remi
                                           /10_MOL/05_MOL_low_scal/05_MOL/aUKBqs
                                           EOTmq69kFe5R_nOg/5k_set_final_qzvp/RU
                                           GJUZ/SZV/1e-4/3.0
