 DBCSR| CPU Multiplication driver                                           BLAS (U)
 DBCSR| Multrec recursion limit                                              512 (U)
 DBCSR| Multiplication stack size                                           1000 (D)
 DBCSR| Maximum elements for images                                    UNLIMITED (U)
 DBCSR| Multiplicative factor virtual images                                   1 (U)
 DBCSR| Use multiplication densification                                       T (D)
 DBCSR| Multiplication size stacks                                             3 (U)
 DBCSR| Use memory pool for CPU allocation                                     F (U)
 DBCSR| Number of 3D layers                                               SINGLE (U)
 DBCSR| Use MPI memory allocation                                              F (U)
 DBCSR| Use RMA algorithm                                                      F (U)
 DBCSR| Use Communication thread                                               T (U)
 DBCSR| Communication thread load                                             75 (D)
 DBCSR| MPI: My process id                                                     0
 DBCSR| MPI: Number of processes                                             216
 DBCSR| OMP: Current number of threads                                         4
 DBCSR| OMP: Max number of threads                                             4
 DBCSR| Split modifier for TAS multiplication algorithm                  1.0E+00 (U)


  **** **** ******  **  PROGRAM STARTED AT               2025-03-11 06:04:40.549
 ***** ** ***  *** **   PROGRAM STARTED ON                          i05r05c01s01
 **    ****   ******    PROGRAM STARTED BY                               di38fab
 ***** **    ** ** **   PROGRAM PROCESS ID                                789443
  **** **  *******  **  PROGRAM STARTED IN /hppfs/scratch/04/di38fab/05_MOL/aUKB
                                           qsEOTmq69kFe5R_nOg/5k_set_final_qzvp/
                                           NEWKOP/aug-cc-pVDZ

 CP2K| version string:                 CP2K version 2025.1 (Development Version)
 CP2K| source code revision number:                                  git:d2e611a
 CP2K| cp2kflags: omp libint fftw3 libxc parallel scalapack max_contr=4         
 CP2K| is freely available from                            https://www.cp2k.org/
 CP2K| Program compiled at                       Thu 06 Mar 2025 05:09:20 PM CET
 CP2K| Program compiled on                                               login02
 CP2K| Program compiled for                                        Supermuc-foss
 CP2K| Data directory path                  /hppfs/work/pn36zo/di38fab/cp2k/data
 CP2K| Input file name                                                    GW.inp

 GLOBAL| Force Environment number                                              1
 GLOBAL| Basis set file name            /hppfs/scratch/04/di38fab/04_TMD/BASIS_A
 GLOBAL| Potential file name            /hppfs/work/pn36zo/di38fab/cp2k/data/ALL
 GLOBAL| MM Potential file name                                     MM_POTENTIAL
 GLOBAL| Coordinate file name                                      __STD_INPUT__
 GLOBAL| Method name                                                        CP2K
 GLOBAL| Project name                                                       MoS2
 GLOBAL| Run type                                                         ENERGY
 GLOBAL| FFT library                                                       FFTW3
 GLOBAL| Diagonalization library                                       ScaLAPACK
 GLOBAL| DGEMM library                                                      BLAS
 GLOBAL| Orthonormality check for eigenvectors                          DISABLED
 GLOBAL| Matrix multiplication library                                 ScaLAPACK
 GLOBAL| All-to-all communication in single precision                          F
 GLOBAL| FFTs using library dependent lengths                                  F
 GLOBAL| Grid backend                                                       AUTO
 GLOBAL| Global print level                                               MEDIUM
 GLOBAL| MPI I/O enabled                                                       T
 GLOBAL| Total number of message passing processes                           216
 GLOBAL| Number of threads for this process                                    4
 GLOBAL| This output is from process                                           0
 GLOBAL| OpenMP stack size per thread (OMP_STACKSIZE)                    default
 GLOBAL| CPU model name             Intel(R) Xeon(R) Platinum 8174 CPU @ 3.10GHz

 MEMORY| system memory details [Kb]
 MEMORY|                        rank 0           min           max       average
 MEMORY| MemTotal             98436708      98436648      98436868      98436681
 MEMORY| MemFree              83969008      83634184      85123084      84074751
 MEMORY| Buffers                     0             0             0             0
 MEMORY| Cached                2411900       2386432       2819676       2474592
 MEMORY| Slab                  1232128       1074240       1239744       1207550
 MEMORY| SReclaimable           275264        242180        275264        266920
 MEMORY| MemLikelyFree        86656172      86320872      87757104      86816265


 *** Fundamental physical constants (SI units) ***

 *** Literature: B. J. Mohr and B. N. Taylor,
 ***             CODATA recommended values of the fundamental physical
 ***             constants: 2006, Web Version 5.1
 ***             http://physics.nist.gov/constants

 Speed of light in vacuum [m/s]                             2.99792458000000E+08
 Magnetic constant or permeability of vacuum [N/A**2]       1.25663706143592E-06
 Electric constant or permittivity of vacuum [F/m]          8.85418781762039E-12
 Planck constant (h) [J*s]                                  6.62606896000000E-34
 Planck constant (h-bar) [J*s]                              1.05457162825177E-34
 Elementary charge [C]                                      1.60217648700000E-19
 Electron mass [kg]                                         9.10938215000000E-31
 Electron g factor [ ]                                     -2.00231930436220E+00
 Proton mass [kg]                                           1.67262163700000E-27
 Fine-structure constant                                    7.29735253760000E-03
 Rydberg constant [1/m]                                     1.09737315685270E+07
 Avogadro constant [1/mol]                                  6.02214179000000E+23
 Boltzmann constant [J/K]                                   1.38065040000000E-23
 Atomic mass unit [kg]                                      1.66053878200000E-27
 Bohr radius [m]                                            5.29177208590000E-11

 *** Conversion factors ***

 [u] -> [a.u.]                                              1.82288848426455E+03
 [Angstrom] -> [Bohr] = [a.u.]                              1.88972613288564E+00
 [a.u.] = [Bohr] -> [Angstrom]                              5.29177208590000E-01
 [a.u.] -> [s]                                              2.41888432650478E-17
 [a.u.] -> [fs]                                             2.41888432650478E-02
 [a.u.] -> [J]                                              4.35974393937059E-18
 [a.u.] -> [N]                                              8.23872205491840E-08
 [a.u.] -> [K]                                              3.15774647902944E+05
 [a.u.] -> [kJ/mol]                                         2.62549961709828E+03
 [a.u.] -> [kcal/mol]                                       6.27509468713739E+02
 [a.u.] -> [Pa]                                             2.94210107994716E+13
 [a.u.] -> [bar]                                            2.94210107994716E+08
 [a.u.] -> [atm]                                            2.90362800883016E+08
 [a.u.] -> [eV]                                             2.72113838565563E+01
 [a.u.] -> [Hz]                                             6.57968392072181E+15
 [a.u.] -> [1/cm] (wave numbers)                            2.19474631370540E+05
 [a.u./Bohr**2] -> [1/cm]                                   5.14048714338585E+03
 

 CELL_TOP| Volume [angstrom^3]:                                     27000.000000
 CELL_TOP| Vector a [angstrom    30.000     0.000     0.000   |a| =    30.000000
 CELL_TOP| Vector b [angstrom     0.000    30.000     0.000   |b| =    30.000000
 CELL_TOP| Vector c [angstrom     0.000     0.000    30.000   |c| =    30.000000
 CELL_TOP| Angle (b,c), alpha [degree]:                                90.000000
 CELL_TOP| Angle (a,c), beta  [degree]:                                90.000000
 CELL_TOP| Angle (a,b), gamma [degree]:                                90.000000
 CELL_TOP| Numerically orthorhombic:                                         YES
 CELL_TOP| Periodicity                                                      NONE

 GENERATE|  Preliminary Number of Bonds generated:                             0
 GENERATE|  Achieved consistency in connectivity generation.

 CELL| Volume [angstrom^3]:                                         27000.000000
 CELL| Vector a [angstrom]:      30.000     0.000     0.000   |a| =    30.000000
 CELL| Vector b [angstrom]:       0.000    30.000     0.000   |b| =    30.000000
 CELL| Vector c [angstrom]:       0.000     0.000    30.000   |c| =    30.000000
 CELL| Angle (b,c), alpha [degree]:                                    90.000000
 CELL| Angle (a,c), beta  [degree]:                                    90.000000
 CELL| Angle (a,b), gamma [degree]:                                    90.000000
 CELL| Numerically orthorhombic:                                             YES
 CELL| Periodicity                                                          NONE

 CELL_REF| Volume [angstrom^3]:                                     27000.000000
 CELL_REF| Vector a [angstrom    30.000     0.000     0.000   |a| =    30.000000
 CELL_REF| Vector b [angstrom     0.000    30.000     0.000   |b| =    30.000000
 CELL_REF| Vector c [angstrom     0.000     0.000    30.000   |c| =    30.000000
 CELL_REF| Angle (b,c), alpha [degree]:                                90.000000
 CELL_REF| Angle (a,c), beta  [degree]:                                90.000000
 CELL_REF| Angle (a,b), gamma [degree]:                                90.000000
 CELL_REF| Numerically orthorhombic:                                         YES
 CELL_REF| Periodicity                                                      NONE

 *******************************************************************************
 *******************************************************************************
 **                                                                           **
 **     #####                         ##              ##                      **
 **    ##   ##            ##          ##              ##                      **
 **   ##     ##                       ##            ######                    **
 **   ##     ##  ##   ##  ##   #####  ##  ##   ####   ##    #####    #####    **
 **   ##     ##  ##   ##  ##  ##      ## ##   ##      ##   ##   ##  ##   ##   **
 **   ##  ## ##  ##   ##  ##  ##      ####     ###    ##   ######   ######    **
 **    ##  ###   ##   ##  ##  ##      ## ##      ##   ##   ##       ##        **
 **     #######   #####   ##   #####  ##  ##  ####    ##    #####   ##        **
 **           ##                                                    ##        **
 **                                                                           **
 **                                                ... make the atoms dance   **
 **                                                                           **
 **            Copyright (C) by CP2K developers group (2000-2025)             **
 **                      J. Chem. Phys. 152, 194103 (2020)                    **
 **                                                                           **
 *******************************************************************************

 DFT| Spin restricted Kohn-Sham (RKS) calculation                            RKS
 DFT| Multiplicity                                                             1
 DFT| Number of spin states                                                    1
 DFT| Charge                                                                   0
 DFT| Self-interaction correction (SIC)                                       NO
 DFT| Cutoffs: density                                              1.000000E-10
 DFT|          gradient                                             1.000000E-10
 DFT|          tau                                                  1.000000E-10
 DFT|          cutoff_smoothing_range                               0.000000E+00
 DFT| XC density smoothing                                                  NONE
 DFT| XC derivatives                                                          PW

 FUNCTIONAL| PBE:
 FUNCTIONAL| J.P.Perdew, K.Burke, M.Ernzerhof, Phys. Rev. Letter, vol. 77, n 18,
 FUNCTIONAL|  pp. 3865-3868, (1996)sx=0.750sc=1.000{spin unpolarized}           


 QS| Method:                                                                GAPW
 QS| Density plane wave grid type                        NON-SPHERICAL FULLSPACE
 QS| Number of grid levels:                                                    4
 QS| Density cutoff [a.u.]:                                                250.0
 QS| Multi grid cutoff [a.u.]: 1) grid level                               250.0
 QS|                           2) grid level                                83.3
 QS|                           3) grid level                                27.8
 QS|                           4) grid level                                 9.3
 QS| Grid level progression factor:                                          3.0
 QS| Relative density cutoff [a.u.]:                                        50.0
 QS| Interaction thresholds: eps_pgf_orb:                                1.0E-12
 QS|                         eps_filter_matrix:                          0.0E+00
 QS|                         eps_core_charge:                            1.0E-14
 QS|                         eps_rho_gspace:                             1.0E-12
 QS|                         eps_rho_rspace:                             1.0E-12
 QS|                         eps_gvg_rspace:                             1.0E-06
 QS|                         eps_ppl:                                    1.0E-02
 QS|                         eps_ppnl:                                   1.0E-08
 QS| GAPW|      One center basis from orbital basis primitives
 QS| GAPW|                   eps_fit:                                    1.0E-04
 QS| GAPW|                   eps_iso:                                    1.0E-12
 QS| GAPW|                   eps_svd:                                    1.0E-08
 QS| GAPW|                   eps_cpc:                                    1.0E-12
 QS| GAPW|   atom-r-grid: quadrature:                                     GC_LOG
 QS| GAPW|      atom-s-grid:  max l :                                          4
 QS| GAPW|      max_l_rho0 :                                                   2


 ATOMIC KIND INFORMATION

  1. Atomic kind: O                                     Number of atoms:       2

     Orbital Basis Set                                               aug-cc-pVDZ

       Number of orbital shell sets:                                           6
       Number of orbital shells:                                               9
       Number of primitive Cartesian functions:                               17
       Number of Cartesian basis functions:                                   25
       Number of spherical basis functions:                                   23
       Norm type:                                                              2

       Normalised Cartesian orbitals:

                        Set   Shell   Orbital            Exponent    Coefficient

                          1       1    1px               0.068560       0.050007
                          1       1    1py               0.068560       0.050007
                          1       1    1pz               0.068560       0.050007

                          2       1    1s                0.078960       0.106161

                          3       1    1px              17.700000       2.226162
                                                         3.854000       1.761976
                                                         1.046000       0.767079
                                                         0.275300       0.130905
                          3       1    1py              17.700000       2.226162
                                                         3.854000       1.761976
                                                         1.046000       0.767079
                                                         0.275300       0.130905
                          3       1    1pz              17.700000       2.226162
                                                         3.854000       1.761976
                                                         1.046000       0.767079
                                                         0.275300       0.130905

                          3       2    2px              17.700000       0.000000
                                                         3.854000       0.000000
                                                         1.046000       0.000000
                                                         0.275300       0.284248
                          3       2    2py              17.700000       0.000000
                                                         3.854000       0.000000
                                                         1.046000       0.000000
                                                         0.275300       0.284248
                          3       2    2pz              17.700000       0.000000
                                                         3.854000       0.000000
                                                         1.046000       0.000000
                                                         0.275300       0.284248

                          4       1    1s            11720.000000       0.569986
                                                      1759.000000       1.058881
                                                       400.800000       1.777168
                                                       113.700000       2.600710
                                                        37.030000       3.028357
                                                        13.270000       2.223504
                                                         5.025000       0.648119
                                                         1.013000       0.011124
                                                         0.302300      -0.000751

                          4       2    2s            11720.000000      -0.128448
                                                      1759.000000      -0.244491
                                                       400.800000      -0.400097
                                                       113.700000      -0.638166
                                                        37.030000      -0.758785
                                                        13.270000      -0.819649
                                                         5.025000      -0.279757
                                                         1.013000       0.401106
                                                         0.302300       0.166422

                          4       3    3s            11720.000000       0.000000
                                                      1759.000000       0.000000
                                                       400.800000       0.000000
                                                       113.700000       0.000000
                                                        37.030000       0.000000
                                                        13.270000       0.000000
                                                         5.025000       0.000000
                                                         1.013000       0.000000
                                                         0.302300       0.290562

                          5       1    1dx2              0.332000       0.239002
                          5       1    1dxy              0.332000       0.413963
                          5       1    1dxz              0.332000       0.413963
                          5       1    1dy2              0.332000       0.239002
                          5       1    1dyz              0.332000       0.413963
                          5       1    1dz2              0.332000       0.239002

                          6       1    1dx2              1.185000       2.215218
                          6       1    1dxy              1.185000       3.836871
                          6       1    1dxz              1.185000       3.836871
                          6       1    1dy2              1.185000       2.215218
                          6       1    1dyz              1.185000       3.836871
                          6       1    1dz2              1.185000       2.215218

     RI Auxiliary Basis Set                                    aug-cc-pVDZ-OPTRI

       Number of orbital shell sets:                                          17
       Number of orbital shells:                                              17
       Number of primitive Cartesian functions:                               17
       Number of Cartesian basis functions:                                   88
       Number of spherical basis functions:                                   69
       Norm type:                                                              2

       Normalised Cartesian orbitals:

                        Set   Shell   Orbital            Exponent    Coefficient

                          1       1    1px               0.102282       0.082450
                          1       1    1py               0.102282       0.082450
                          1       1    1pz               0.102282       0.082450

                          2       1    1s                0.117785       0.143294

                          3       1    1px               0.412399       0.471072
                          3       1    1py               0.412399       0.471072
                          3       1    1pz               0.412399       0.471072

                          4       1    1fx3              0.507566       0.320120
                          4       1    1fx2y             0.507566       0.715810
                          4       1    1fx2z             0.507566       0.715810
                          4       1    1fxy2             0.507566       0.715810
                          4       1    1fxyz             0.507566       1.239819
                          4       1    1fxz2             0.507566       0.715810
                          4       1    1fy3              0.507566       0.320120
                          4       1    1fy2z             0.507566       0.715810
                          4       1    1fyz2             0.507566       0.715810
                          4       1    1fz3              0.507566       0.320120

                          5       1    1dx2              0.533937       0.548930
                          5       1    1dxy              0.533937       0.950775
                          5       1    1dxz              0.533937       0.950775
                          5       1    1dy2              0.533937       0.548930
                          5       1    1dyz              0.533937       0.950775
                          5       1    1dz2              0.533937       0.548930

                          6       1    1px               0.892559       1.236620
                          6       1    1py               0.892559       1.236620
                          6       1    1pz               0.892559       1.236620

                          7       1    1s                0.910384       0.664245

                          8       1    1fx3              1.557922       3.991924
                          8       1    1fx2y             1.557922       8.926214
                          8       1    1fx2z             1.557922       8.926214
                          8       1    1fxy2             1.557922       8.926214
                          8       1    1fxyz             1.557922      15.460656
                          8       1    1fxz2             1.557922       8.926214
                          8       1    1fy3              1.557922       3.991924
                          8       1    1fy2z             1.557922       8.926214
                          8       1    1fyz2             1.557922       8.926214
                          8       1    1fz3              1.557922       3.991924

                          9       1    1gx4              1.763142       5.293287
                          9       1    1gx3y             1.763142      14.004722
                          9       1    1gx3z             1.763142      14.004722
                          9       1    1gx2y2            1.763142      18.080018
                          9       1    1gx2yz            1.763142      31.315511
                          9       1    1gx2z2            1.763142      18.080018
                          9       1    1gxy3             1.763142      14.004722
                          9       1    1gxy2z            1.763142      31.315511
                          9       1    1gxyz2            1.763142      31.315511
                          9       1    1gxz3             1.763142      14.004722
                          9       1    1gy4              1.763142       5.293287
                          9       1    1gy3z             1.763142      14.004722
                          9       1    1gy2z2            1.763142      18.080018
                          9       1    1gyz3             1.763142      14.004722
                          9       1    1gz4              1.763142       5.293287

                         10       1    1px               1.931778       3.246285
                         10       1    1py               1.931778       3.246285
                         10       1    1pz               1.931778       3.246285

                         11       1    1s                3.089291       1.660750

                         12       1    1dx2              3.533545      14.989186
                         12       1    1dxy              3.533545      25.962032
                         12       1    1dxz              3.533545      25.962032
                         12       1    1dy2              3.533545      14.989186
                         12       1    1dyz              3.533545      25.962032
                         12       1    1dz2              3.533545      14.989186

                         13       1    1px               4.180971       8.521902
                         13       1    1py               4.180971       8.521902
                         13       1    1pz               4.180971       8.521902

                         14       1    1fx3              4.802730      50.269300
                         14       1    1fx2y             4.802730     112.405572
                         14       1    1fx2z             4.802730     112.405572
                         14       1    1fxy2             4.802730     112.405572
                         14       1    1fxyz             4.802730     194.692161
                         14       1    1fxz2             4.802730     112.405572
                         14       1    1fy3              4.802730      50.269300
                         14       1    1fy2z             4.802730     112.405572
                         14       1    1fyz2             4.802730     112.405572
                         14       1    1fz3              4.802730      50.269300

                         15       1    1dx2              6.710063      46.044844
                         15       1    1dxy              6.710063      79.752009
                         15       1    1dxz              6.710063      79.752009
                         15       1    1dy2              6.710063      46.044844
                         15       1    1dyz              6.710063      79.752009
                         15       1    1dz2              6.710063      46.044844

                         16       1    1s               10.483182       4.152216

                         17       1    1dx2             12.742147     141.443836
                         17       1    1dxy             12.742147     244.987910
                         17       1    1dxz             12.742147     244.987910
                         17       1    1dy2             12.742147     141.443836
                         17       1    1dyz             12.742147     244.987910
                         17       1    1dz2             12.742147     141.443836

       Atomic covalent radius [Angstrom]:                                  0.730

       Atomic van der Waals radius [Angstrom]:                             1.520

     The atoms of this atomic kind are PAW atoms (GAPW):
       Hard Gaussian function radius:                                      1.512
       Rho0 radius:                                                        1.512
       Maximum GTO radius used for PAW projector construction:            24.566

     GAPW Soft Basis Set                                        aug-cc-pVDZ_soft

       Number of orbital shell sets:                                           6
       Number of orbital shells:                                               9
       Number of primitive Cartesian functions:                                9
       Number of Cartesian basis functions:                                   25
       Number of spherical basis functions:                                   23
       Norm type:                                                              2

       Normalised Cartesian orbitals:

                        Set   Shell   Orbital            Exponent    Coefficient

                          1       1    1px               0.068560       0.050007
                          1       1    1py               0.068560       0.050007
                          1       1    1pz               0.068560       0.050007

                          2       1    1s                0.078960       0.106161

                          3       1    1px               3.854000       1.761976
                                                         1.046000       0.767079
                                                         0.275300       0.130905
                          3       1    1py               3.854000       1.761976
                                                         1.046000       0.767079
                                                         0.275300       0.130905
                          3       1    1pz               3.854000       1.761976
                                                         1.046000       0.767079
                                                         0.275300       0.130905

                          3       2    2px               3.854000       0.000000
                                                         1.046000       0.000000
                                                         0.275300       0.284248
                          3       2    2py               3.854000       0.000000
                                                         1.046000       0.000000
                                                         0.275300       0.284248
                          3       2    2pz               3.854000       0.000000
                                                         1.046000       0.000000
                                                         0.275300       0.284248

                          4       1    1s                1.013000       0.011124
                                                         0.302300      -0.000751

                          4       2    2s                1.013000       0.401106
                                                         0.302300       0.166422

                          4       3    3s                1.013000       0.000000
                                                         0.302300       0.290562

                          5       1    1dx2              0.332000       0.239002
                          5       1    1dxy              0.332000       0.413963
                          5       1    1dxz              0.332000       0.413963
                          5       1    1dy2              0.332000       0.239002
                          5       1    1dyz              0.332000       0.413963
                          5       1    1dz2              0.332000       0.239002

                          6       1    1dx2              1.185000       2.215218
                          6       1    1dxy              1.185000       3.836871
                          6       1    1dxz              1.185000       3.836871
                          6       1    1dy2              1.185000       2.215218
                          6       1    1dyz              1.185000       3.836871
                          6       1    1dz2              1.185000       2.215218

     AE Potential information for                                            ALL

       Description:                                       All-electron potential
                                          Krack, Parrinello, PCCP 2, 2105 (2000)

       Gaussian exponent of the core charge distribution:               8.154466
       Electronic configuration (s p d ...):                           4   4   0

  2. Atomic kind: H                                     Number of atoms:       4

     Orbital Basis Set                                               aug-cc-pVDZ

       Number of orbital shell sets:                                           4
       Number of orbital shells:                                               5
       Number of primitive Cartesian functions:                                7
       Number of Cartesian basis functions:                                    9
       Number of spherical basis functions:                                    9
       Norm type:                                                              2

       Normalised Cartesian orbitals:

                        Set   Shell   Orbital            Exponent    Coefficient

                          1       1    1s                0.029740       0.051041

                          2       1    1s               13.010000       0.096107
                                                         1.962000       0.163020
                                                         0.444600       0.185545
                                                         0.122000       0.073744

                          2       2    2s               13.010000       0.000000
                                                         1.962000       0.000000
                                                         0.444600       0.000000
                                                         0.122000       0.147123

                          3       1    1px               0.141000       0.123158
                          3       1    1py               0.141000       0.123158
                          3       1    1pz               0.141000       0.123158

                          4       1    1px               0.727000       0.956881
                          4       1    1py               0.727000       0.956881
                          4       1    1pz               0.727000       0.956881

     RI Auxiliary Basis Set                                    aug-cc-pVDZ-OPTRI

       Number of orbital shell sets:                                           8
       Number of orbital shells:                                               8
       Number of primitive Cartesian functions:                                8
       Number of Cartesian basis functions:                                   24
       Number of spherical basis functions:                                   22
       Norm type:                                                              2

       Normalised Cartesian orbitals:

                        Set   Shell   Orbital            Exponent    Coefficient

                          1       1    1s                0.081394       0.108606

                          2       1    1px               0.273202       0.281543
                          2       1    1py               0.273202       0.281543
                          2       1    1pz               0.273202       0.281543

                          3       1    1s                0.286540       0.279125

                          4       1    1dx2              0.757634       1.012660
                          4       1    1dxy              0.757634       1.753978
                          4       1    1dxz              0.757634       1.753978
                          4       1    1dy2              0.757634       1.012660
                          4       1    1dyz              0.757634       1.753978
                          4       1    1dz2              0.757634       1.012660

                          5       1    1px               1.251075       1.886011
                          5       1    1py               1.251075       1.886011
                          5       1    1pz               1.251075       1.886011

                          6       1    1s                1.320036       0.877707

                          7       1    1dx2              2.604730       8.790108
                          7       1    1dxy              2.604730      15.224913
                          7       1    1dxz              2.604730      15.224913
                          7       1    1dy2              2.604730       8.790108
                          7       1    1dyz              2.604730      15.224913
                          7       1    1dz2              2.604730       8.790108

                          8       1    1px               2.667161       4.858494
                          8       1    1py               2.667161       4.858494
                          8       1    1pz               2.667161       4.858494

       Atomic covalent radius [Angstrom]:                                  0.320

       Atomic van der Waals radius [Angstrom]:                             1.090

     The atoms of this atomic kind are PAW atoms (GAPW):
       Hard Gaussian function radius:                                      1.200
       Rho0 radius:                                                        1.200
       Maximum GTO radius used for PAW projector construction:            24.566

     GAPW Soft Basis Set                                        aug-cc-pVDZ_soft

       Number of orbital shell sets:                                           4
       Number of orbital shells:                                               5
       Number of primitive Cartesian functions:                                6
       Number of Cartesian basis functions:                                    9
       Number of spherical basis functions:                                    9
       Norm type:                                                              2

       Normalised Cartesian orbitals:

                        Set   Shell   Orbital            Exponent    Coefficient

                          1       1    1s                0.029740       0.051041

                          2       1    1s                1.962000       0.163020
                                                         0.444600       0.185545
                                                         0.122000       0.073744

                          2       2    2s                1.962000       0.000000
                                                         0.444600       0.000000
                                                         0.122000       0.147123

                          3       1    1px               0.141000       0.123158
                          3       1    1py               0.141000       0.123158
                          3       1    1pz               0.141000       0.123158

                          4       1    1px               0.727000       0.956881
                          4       1    1py               0.727000       0.956881
                          4       1    1pz               0.727000       0.956881

     AE Potential information for                                            ALL

       Description:                                       All-electron potential
                                          Krack, Parrinello, PCCP 2, 2105 (2000)

       Gaussian exponent of the core charge distribution:              12.500000
       Electronic configuration (s p d ...):                           1   0   0

  3. Atomic kind: N                                     Number of atoms:       1

     Orbital Basis Set                                               aug-cc-pVDZ

       Number of orbital shell sets:                                           6
       Number of orbital shells:                                               9
       Number of primitive Cartesian functions:                               17
       Number of Cartesian basis functions:                                   25
       Number of spherical basis functions:                                   23
       Norm type:                                                              2

       Normalised Cartesian orbitals:

                        Set   Shell   Orbital            Exponent    Coefficient

                          1       1    1px               0.056110       0.038926
                          1       1    1py               0.056110       0.038926
                          1       1    1pz               0.056110       0.038926

                          2       1    1s                0.061240       0.087738

                          3       1    1px              13.550000       1.479258
                                                         2.917000       1.180072
                                                         0.797300       0.548036
                                                         0.218500       0.098423
                          3       1    1py              13.550000       1.479258
                                                         2.917000       1.180072
                                                         0.797300       0.548036
                                                         0.218500       0.098423
                          3       1    1pz              13.550000       1.479258
                                                         2.917000       1.180072
                                                         0.797300       0.548036
                                                         0.218500       0.098423

                          3       2    2px              13.550000       0.000000
                                                         2.917000       0.000000
                                                         0.797300       0.000000
                                                         0.218500       0.212939
                          3       2    2py              13.550000       0.000000
                                                         2.917000       0.000000
                                                         0.797300       0.000000
                                                         0.218500       0.212939
                          3       2    2pz              13.550000       0.000000
                                                         2.917000       0.000000
                                                         0.797300       0.000000
                                                         0.218500       0.212939

                          4       1    1s             9046.000000       0.462754
                                                      1357.000000       0.858723
                                                       309.300000       1.440591
                                                        87.730000       2.108533
                                                        28.560000       2.454153
                                                        10.210000       1.825915
                                                         3.838000       0.543758
                                                         0.746600       0.008838
                                                         0.224800      -0.000666

                          4       2    2s             9046.000000      -0.101145
                                                      1357.000000      -0.192492
                                                       309.300000      -0.314968
                                                        87.730000      -0.501437
                                                        28.560000      -0.593976
                                                        10.210000      -0.643503
                                                         3.838000      -0.238093
                                                         0.746600       0.314268
                                                         0.224800       0.134678

                          4       3    3s             9046.000000       0.000000
                                                      1357.000000       0.000000
                                                       309.300000       0.000000
                                                        87.730000       0.000000
                                                        28.560000       0.000000
                                                        10.210000       0.000000
                                                         3.838000       0.000000
                                                         0.746600       0.000000
                                                         0.224800       0.232679

                          5       1    1dx2              0.230000       0.125728
                          5       1    1dxy              0.230000       0.217768
                          5       1    1dxz              0.230000       0.217768
                          5       1    1dy2              0.230000       0.125728
                          5       1    1dyz              0.230000       0.217768
                          5       1    1dz2              0.230000       0.125728

                          6       1    1dx2              0.817000       1.155575
                          6       1    1dxy              0.817000       2.001514
                          6       1    1dxz              0.817000       2.001514
                          6       1    1dy2              0.817000       1.155575
                          6       1    1dyz              0.817000       2.001514
                          6       1    1dz2              0.817000       1.155575

     RI Auxiliary Basis Set                                    aug-cc-pVDZ-OPTRI

       Number of orbital shell sets:                                          17
       Number of orbital shells:                                              17
       Number of primitive Cartesian functions:                               17
       Number of Cartesian basis functions:                                   88
       Number of spherical basis functions:                                   69
       Norm type:                                                              2

       Normalised Cartesian orbitals:

                        Set   Shell   Orbital            Exponent    Coefficient

                          1       1    1s                0.091449       0.118521

                          2       1    1px               0.115183       0.095648
                          2       1    1py               0.115183       0.095648
                          2       1    1pz               0.115183       0.095648

                          3       1    1px               0.322548       0.346484
                          3       1    1py               0.322548       0.346484
                          3       1    1pz               0.322548       0.346484

                          4       1    1dx2              0.422464       0.364369
                          4       1    1dxy              0.422464       0.631106
                          4       1    1dxz              0.422464       0.631106
                          4       1    1dy2              0.422464       0.364369
                          4       1    1dyz              0.422464       0.631106
                          4       1    1dz2              0.422464       0.364369

                          5       1    1fx3              0.510986       0.324994
                          5       1    1fx2y             0.510986       0.726708
                          5       1    1fx2z             0.510986       0.726708
                          5       1    1fxy2             0.510986       0.726708
                          5       1    1fxyz             0.510986       1.258694
                          5       1    1fxz2             0.510986       0.726708
                          5       1    1fy3              0.510986       0.324994
                          5       1    1fy2z             0.510986       0.726708
                          5       1    1fyz2             0.510986       0.726708
                          5       1    1fz3              0.510986       0.324994

                          6       1    1px               0.679523       0.879418
                          6       1    1py               0.679523       0.879418
                          6       1    1pz               0.679523       0.879418

                          7       1    1s                0.726628       0.560911

                          8       1    1fx3              1.397681       3.126962
                          8       1    1fx2y             1.397681       6.992099
                          8       1    1fx2z             1.397681       6.992099
                          8       1    1fxy2             1.397681       6.992099
                          8       1    1fxyz             1.397681      12.110671
                          8       1    1fxz2             1.397681       6.992099
                          8       1    1fy3              1.397681       3.126962
                          8       1    1fy2z             1.397681       6.992099
                          8       1    1fyz2             1.397681       6.992099
                          8       1    1fz3              1.397681       3.126962

                          9       1    1px               1.431573       2.232066
                          9       1    1py               1.431573       2.232066
                          9       1    1pz               1.431573       2.232066

                         10       1    1gx4              1.484177       3.296257
                         10       1    1gx3y             1.484177       8.721077
                         10       1    1gx3z             1.484177       8.721077
                         10       1    1gx2y2            1.484177      11.258862
                         10       1    1gx2yz            1.484177      19.500921
                         10       1    1gx2z2            1.484177      11.258862
                         10       1    1gxy3             1.484177       8.721077
                         10       1    1gxy2z            1.484177      19.500921
                         10       1    1gxyz2            1.484177      19.500921
                         10       1    1gxz3             1.484177       8.721077
                         10       1    1gy4              1.484177       3.296257
                         10       1    1gy3z             1.484177       8.721077
                         10       1    1gy2z2            1.484177      11.258862
                         10       1    1gyz3             1.484177       8.721077
                         10       1    1gz4              1.484177       3.296257

                         11       1    1dx2              1.846235       4.812954
                         11       1    1dxy              1.846235       8.336280
                         11       1    1dxz              1.846235       8.336280
                         11       1    1dy2              1.846235       4.812954
                         11       1    1dyz              1.846235       8.336280
                         11       1    1dz2              1.846235       4.812954

                         12       1    1s                2.651372       1.480857

                         13       1    1px               3.015942       5.665247
                         13       1    1py               3.015942       5.665247
                         13       1    1pz               3.015942       5.665247

                         14       1    1dx2              3.588066      15.396259
                         14       1    1dxy              3.588066      26.667102
                         14       1    1dxz              3.588066      26.667102
                         14       1    1dy2              3.588066      15.396259
                         14       1    1dyz              3.588066      26.667102
                         14       1    1dz2              3.588066      15.396259

                         15       1    1fx3              4.092837      35.075951
                         15       1    1fx2y             4.092837      78.432212
                         15       1    1fx2z             4.092837      78.432212
                         15       1    1fxy2             4.092837      78.432212
                         15       1    1fxyz             4.092837     135.848576
                         15       1    1fxz2             4.092837      78.432212
                         15       1    1fy3              4.092837      35.075951
                         15       1    1fy2z             4.092837      78.432212
                         15       1    1fyz2             4.092837      78.432212
                         15       1    1fz3              4.092837      35.075951

                         16       1    1dx2              6.973227      49.251404
                         16       1    1dxy              6.973227      85.305933
                         16       1    1dxz              6.973227      85.305933
                         16       1    1dy2              6.973227      49.251404
                         16       1    1dyz              6.973227      85.305933
                         16       1    1dz2              6.973227      49.251404

                         17       1    1s                9.674522       3.909599

       Atomic covalent radius [Angstrom]:                                  0.750

       Atomic van der Waals radius [Angstrom]:                             1.550

     The atoms of this atomic kind are PAW atoms (GAPW):
       Hard Gaussian function radius:                                      1.512
       Rho0 radius:                                                        1.512
       Maximum GTO radius used for PAW projector construction:            24.566

     GAPW Soft Basis Set                                        aug-cc-pVDZ_soft

       Number of orbital shell sets:                                           6
       Number of orbital shells:                                               9
       Number of primitive Cartesian functions:                               10
       Number of Cartesian basis functions:                                   25
       Number of spherical basis functions:                                   23
       Norm type:                                                              2

       Normalised Cartesian orbitals:

                        Set   Shell   Orbital            Exponent    Coefficient

                          1       1    1px               0.056110       0.038926
                          1       1    1py               0.056110       0.038926
                          1       1    1pz               0.056110       0.038926

                          2       1    1s                0.061240       0.087738

                          3       1    1px               2.917000       1.180072
                                                         0.797300       0.548036
                                                         0.218500       0.098423
                          3       1    1py               2.917000       1.180072
                                                         0.797300       0.548036
                                                         0.218500       0.098423
                          3       1    1pz               2.917000       1.180072
                                                         0.797300       0.548036
                                                         0.218500       0.098423

                          3       2    2px               2.917000       0.000000
                                                         0.797300       0.000000
                                                         0.218500       0.212939
                          3       2    2py               2.917000       0.000000
                                                         0.797300       0.000000
                                                         0.218500       0.212939
                          3       2    2pz               2.917000       0.000000
                                                         0.797300       0.000000
                                                         0.218500       0.212939

                          4       1    1s                3.838000       0.543758
                                                         0.746600       0.008838
                                                         0.224800      -0.000666

                          4       2    2s                3.838000      -0.238093
                                                         0.746600       0.314268
                                                         0.224800       0.134678

                          4       3    3s                3.838000       0.000000
                                                         0.746600       0.000000
                                                         0.224800       0.232679

                          5       1    1dx2              0.230000       0.125728
                          5       1    1dxy              0.230000       0.217768
                          5       1    1dxz              0.230000       0.217768
                          5       1    1dy2              0.230000       0.125728
                          5       1    1dyz              0.230000       0.217768
                          5       1    1dz2              0.230000       0.125728

                          6       1    1dx2              0.817000       1.155575
                          6       1    1dxy              0.817000       2.001514
                          6       1    1dxz              0.817000       2.001514
                          6       1    1dy2              0.817000       1.155575
                          6       1    1dyz              0.817000       2.001514
                          6       1    1dz2              0.817000       1.155575

     AE Potential information for                                            ALL

       Description:                                       All-electron potential
                                          Krack, Parrinello, PCCP 2, 2105 (2000)

       Gaussian exponent of the core charge distribution:               5.979100
       Electronic configuration (s p d ...):                           4   3   0

  4. Atomic kind: C                                     Number of atoms:       7

     Orbital Basis Set                                               aug-cc-pVDZ

       Number of orbital shell sets:                                           6
       Number of orbital shells:                                               9
       Number of primitive Cartesian functions:                               17
       Number of Cartesian basis functions:                                   25
       Number of spherical basis functions:                                   23
       Norm type:                                                              2

       Normalised Cartesian orbitals:

                        Set   Shell   Orbital            Exponent    Coefficient

                          1       1    1px               0.040410       0.025826
                          1       1    1py               0.040410       0.025826
                          1       1    1pz               0.040410       0.025826

                          2       1    1s                0.046900       0.071827

                          3       1    1dx2              0.151000       0.060203
                          3       1    1dxy              0.151000       0.104275
                          3       1    1dxz              0.151000       0.104275
                          3       1    1dy2              0.151000       0.060203
                          3       1    1dyz              0.151000       0.104275
                          3       1    1dz2              0.151000       0.060203

                          4       1    1px               9.439000       0.898722
                                                         2.002000       0.711071
                                                         0.545600       0.339917
                                                         0.151700       0.063270
                          4       1    1py               9.439000       0.898722
                                                         2.002000       0.711071
                                                         0.545600       0.339917
                                                         0.151700       0.063270
                          4       1    1pz               9.439000       0.898722
                                                         2.002000       0.711071
                                                         0.545600       0.339917
                                                         0.151700       0.063270

                          4       2    2px               9.439000       0.000000
                                                         2.002000       0.000000
                                                         0.545600       0.000000
                                                         0.151700       0.134950
                          4       2    2py               9.439000       0.000000
                                                         2.002000       0.000000
                                                         0.545600       0.000000
                                                         0.151700       0.134950
                          4       2    2pz               9.439000       0.000000
                                                         2.002000       0.000000
                                                         0.545600       0.000000
                                                         0.151700       0.134950

                          5       1    1s             6665.000000       0.363803
                                                      1000.000000       0.675392
                                                       228.000000       1.132301
                                                        64.710000       1.654004
                                                        21.060000       1.924978
                                                         7.495000       1.448149
                                                         2.797000       0.439427
                                                         0.521500       0.006650
                                                         0.159600      -0.000574

                          5       2    2s             6665.000000      -0.076756
                                                      1000.000000      -0.146257
                                                       228.000000      -0.239407
                                                        64.710000      -0.379069
                                                        21.060000      -0.448104
                                                         7.495000      -0.484201
                                                         2.797000      -0.196168
                                                         0.521500       0.238162
                                                         0.159600       0.104468

                          5       3    3s             6665.000000       0.000000
                                                      1000.000000       0.000000
                                                       228.000000       0.000000
                                                        64.710000       0.000000
                                                        21.060000       0.000000
                                                         7.495000       0.000000
                                                         2.797000       0.000000
                                                         0.521500       0.000000
                                                         0.159600       0.179964

                          6       1    1dx2              0.550000       0.578155
                          6       1    1dxy              0.550000       1.001394
                          6       1    1dxz              0.550000       1.001394
                          6       1    1dy2              0.550000       0.578155
                          6       1    1dyz              0.550000       1.001394
                          6       1    1dz2              0.550000       0.578155

     RI Auxiliary Basis Set                                    aug-cc-pVDZ-OPTRI

       Number of orbital shell sets:                                          17
       Number of orbital shells:                                              17
       Number of primitive Cartesian functions:                               17
       Number of Cartesian basis functions:                                   88
       Number of spherical basis functions:                                   69
       Norm type:                                                              2

       Normalised Cartesian orbitals:

                        Set   Shell   Orbital            Exponent    Coefficient

                          1       1    1s                0.073601       0.100710

                          2       1    1px               0.095295       0.075471
                          2       1    1py               0.095295       0.075471
                          2       1    1pz               0.095295       0.075471

                          3       1    1px               0.227892       0.224441
                          3       1    1py               0.227892       0.224441
                          3       1    1pz               0.227892       0.224441

                          4       1    1fx3              0.301896       0.099457
                          4       1    1fx2y             0.301896       0.222392
                          4       1    1fx2z             0.301896       0.222392
                          4       1    1fxy2             0.301896       0.222392
                          4       1    1fxyz             0.301896       0.385194
                          4       1    1fxz2             0.301896       0.222392
                          4       1    1fy3              0.301896       0.099457
                          4       1    1fy2z             0.301896       0.222392
                          4       1    1fyz2             0.301896       0.222392
                          4       1    1fz3              0.301896       0.099457

                          5       1    1dx2              0.333056       0.240334
                          5       1    1dxy              0.333056       0.416270
                          5       1    1dxz              0.333056       0.416270
                          5       1    1dy2              0.333056       0.240334
                          5       1    1dyz              0.333056       0.416270
                          5       1    1dz2              0.333056       0.240334

                          6       1    1px               0.481813       0.572187
                          6       1    1py               0.481813       0.572187
                          6       1    1pz               0.481813       0.572187

                          7       1    1s                0.499106       0.423209

                          8       1    1fx3              0.891821       1.137835
                          8       1    1fx2y             0.891821       2.544276
                          8       1    1fx2z             0.891821       2.544276
                          8       1    1fxy2             0.891821       2.544276
                          8       1    1fxyz             0.891821       4.406816
                          8       1    1fxz2             0.891821       2.544276
                          8       1    1fy3              0.891821       1.137835
                          8       1    1fy2z             0.891821       2.544276
                          8       1    1fyz2             0.891821       2.544276
                          8       1    1fz3              0.891821       1.137835

                          9       1    1gx4              0.973489       1.033584
                          9       1    1gx3y             0.973489       2.734606
                          9       1    1gx3z             0.973489       2.734606
                          9       1    1gx2y2            0.973489       3.530362
                          9       1    1gx2yz            0.973489       6.114766
                          9       1    1gx2z2            0.973489       3.530362
                          9       1    1gxy3             0.973489       2.734606
                          9       1    1gxy2z            0.973489       6.114766
                          9       1    1gxyz2            0.973489       6.114766
                          9       1    1gxz3             0.973489       2.734606
                          9       1    1gy4              0.973489       1.033584
                          9       1    1gy3z             0.973489       2.734606
                          9       1    1gy2z2            0.973489       3.530362
                          9       1    1gyz3             0.973489       2.734606
                          9       1    1gz4              0.973489       1.033584

                         10       1    1px               1.018656       1.458729
                         10       1    1py               1.018656       1.458729
                         10       1    1pz               1.018656       1.458729

                         11       1    1dx2              1.381969       2.899222
                         11       1    1dxy              1.381969       5.021600
                         11       1    1dxz              1.381969       5.021600
                         11       1    1dy2              1.381969       2.899222
                         11       1    1dyz              1.381969       5.021600
                         11       1    1dz2              1.381969       2.899222

                         12       1    1s                1.807741       1.111123

                         13       1    1px               2.153659       3.718872
                         13       1    1py               2.153659       3.718872
                         13       1    1pz               2.153659       3.718872

                         14       1    1fx3              2.652750      13.221209
                         14       1    1fx2y             2.652750      29.563522
                         14       1    1fx2z             2.652750      29.563522
                         14       1    1fxy2             2.652750      29.563522
                         14       1    1fxyz             2.652750      51.205523
                         14       1    1fxz2             2.652750      29.563522
                         14       1    1fy3              2.652750      13.221209
                         14       1    1fy2z             2.652750      29.563522
                         14       1    1fyz2             2.652750      29.563522
                         14       1    1fz3              2.652750      13.221209

                         15       1    1dx2              3.347320      13.634199
                         15       1    1dxy              3.347320      23.615125
                         15       1    1dxz              3.347320      23.615125
                         15       1    1dy2              3.347320      13.634199
                         15       1    1dyz              3.347320      23.615125
                         15       1    1dz2              3.347320      13.634199

                         16       1    1s                6.547563       2.917225

                         17       1    1dx2              8.107669      64.117632
                         17       1    1dxy              8.107669     111.054996
                         17       1    1dxz              8.107669     111.054996
                         17       1    1dy2              8.107669      64.117632
                         17       1    1dyz              8.107669     111.054996
                         17       1    1dz2              8.107669      64.117632

       Atomic covalent radius [Angstrom]:                                  0.770

       Atomic van der Waals radius [Angstrom]:                             1.700

     The atoms of this atomic kind are PAW atoms (GAPW):
       Hard Gaussian function radius:                                      1.512
       Rho0 radius:                                                        1.512
       Maximum GTO radius used for PAW projector construction:            24.566

     GAPW Soft Basis Set                                        aug-cc-pVDZ_soft

       Number of orbital shell sets:                                           6
       Number of orbital shells:                                               9
       Number of primitive Cartesian functions:                               10
       Number of Cartesian basis functions:                                   25
       Number of spherical basis functions:                                   23
       Norm type:                                                              2

       Normalised Cartesian orbitals:

                        Set   Shell   Orbital            Exponent    Coefficient

                          1       1    1px               0.040410       0.025826
                          1       1    1py               0.040410       0.025826
                          1       1    1pz               0.040410       0.025826

                          2       1    1s                0.046900       0.071827

                          3       1    1dx2              0.151000       0.060203
                          3       1    1dxy              0.151000       0.104275
                          3       1    1dxz              0.151000       0.104275
                          3       1    1dy2              0.151000       0.060203
                          3       1    1dyz              0.151000       0.104275
                          3       1    1dz2              0.151000       0.060203

                          4       1    1px               2.002000       0.711071
                                                         0.545600       0.339917
                                                         0.151700       0.063270
                          4       1    1py               2.002000       0.711071
                                                         0.545600       0.339917
                                                         0.151700       0.063270
                          4       1    1pz               2.002000       0.711071
                                                         0.545600       0.339917
                                                         0.151700       0.063270

                          4       2    2px               2.002000       0.000000
                                                         0.545600       0.000000
                                                         0.151700       0.134950
                          4       2    2py               2.002000       0.000000
                                                         0.545600       0.000000
                                                         0.151700       0.134950
                          4       2    2pz               2.002000       0.000000
                                                         0.545600       0.000000
                                                         0.151700       0.134950

                          5       1    1s                2.797000       0.439427
                                                         0.521500       0.006650
                                                         0.159600      -0.000574

                          5       2    2s                2.797000      -0.196168
                                                         0.521500       0.238162
                                                         0.159600       0.104468

                          5       3    3s                2.797000       0.000000
                                                         0.521500       0.000000
                                                         0.159600       0.179964

                          6       1    1dx2              0.550000       0.578155
                          6       1    1dxy              0.550000       1.001394
                          6       1    1dxz              0.550000       1.001394
                          6       1    1dy2              0.550000       0.578155
                          6       1    1dyz              0.550000       1.001394
                          6       1    1dz2              0.550000       0.578155

     AE Potential information for                                            ALL

       Description:                                       All-electron potential
                                          Krack, Parrinello, PCCP 2, 2105 (2000)

       Gaussian exponent of the core charge distribution:               4.109048
       Electronic configuration (s p d ...):                           4   2   0

  5. Atomic kind: Cl                                    Number of atoms:       1

     Orbital Basis Set                                               aug-cc-pVDZ

       Number of orbital shell sets:                                           6
       Number of orbital shells:                                              11
[...]
 gaVxcgb_GC                         267  9.0    0.051    3.365    0.051    3.365
 mp_waitall_1                     93574 12.0    2.051    2.525    2.051    2.525
 transfer_rs2pw_90                   90  9.0    0.251    0.307    1.370    2.081
 transfer_pw2rs_30                   90 12.0    0.826    0.910    1.868    1.979
 mp_sum_dm                         4144  7.6    1.840    1.972    1.840    1.972
 transfer_rs2pw_30                   90  9.0    0.853    0.895    1.934    1.969
 mp2_ri_gpw_compute_in                1  5.0    0.001    0.003    1.960    1.960
 mp2_ri_gpw_compute_in_loop           1  6.0    0.000    0.000    1.929    1.929
 xc_functional_eval                 623 10.9    0.001    0.002    1.377    1.921
 pbe_lda_eval                       623 11.9    1.376    1.919    1.376    1.919
 contract_B_L                         4  7.0    0.005    0.007    1.736    1.849
 integrate_four_center_main          90 10.0    0.026    0.534    1.548    1.826
 create_qs_kind_set                   1  2.0    0.000    0.000    1.820    1.821
 read_qs_kind                         5  3.0    1.025    1.042    1.820    1.821
 integrate_four_center_bin        17650 11.0    1.522    1.799    1.522    1.799
 rpa_num_int_RPA_matrix_operati     100  7.0    0.001    0.004    1.576    1.577
 mp_sendrecv_dv                   38700 10.0    1.439    1.499    1.439    1.499
 dbt_total                            8  8.0    0.000    0.000    1.469    1.469
 pw_scatter_p                       984 12.1    1.282    1.461    1.282    1.461
 dbt_contract                         4  9.0    0.001    0.001    0.978    1.433
 qs_energies_init_hamiltonians        1  3.0    0.000    0.000    1.333    1.333
 build_core_hamiltonian_matrix        1  4.0    0.000    0.000    1.321    1.321
 overlap_condnum                      1  5.0    0.000    0.001    1.318    1.319
 calc_mat_Q                         100  8.0    0.000    0.000    1.190    1.197
 arnoldi_conjugate_gradient           7  6.0    0.028    0.033    1.195    1.195
 contract_S_to_Q                    100  9.0    0.001    0.001    1.176    1.183
 cp2k_distribution_to_z_slices       90  9.0    0.415    0.459    0.956    1.172
 transfer_pw2rs_90                   90 12.0    0.239    0.287    1.047    1.161
 pw_gather_p                        897 11.8    0.987    1.135    0.987    1.135
 calculate_rho_atom                 450  9.0    0.623    1.125    0.623    1.125
 rs_grid_zero                       452 11.2    1.035    1.068    1.035    1.068
 fft_wrap_pw1pw2_90                 180 10.5    0.027    0.049    0.900    1.029
 mp_isendrecv_dv                  77400 12.0    0.526    0.989    0.526    0.989
 pw_derive                          804 11.3    0.881    0.948    0.881    0.948
 mp_sum_dv                        23646 10.6    0.758    0.883    0.758    0.883
 mp_cart_create                     711  9.7    0.733    0.876    0.734    0.877
 calculate_dm_sparse                 89  6.0    0.001    0.001    0.836    0.859
 cp_dbcsr_plus_fm_fm_t               89  7.0    0.001    0.002    0.835    0.858
 dbt_pgrid_create_expert             84 10.8    0.000    0.000    0.694    0.829
 parser_read_line                216715  4.0    0.074    0.080    0.795    0.811
 parser_read_line_low               241  5.0    0.075    0.321    0.721    0.740
 pw_copy                           1345 10.6    0.677    0.734    0.677    0.734
 dbcsr_sym_matrix_vector_mult      4123  7.0    0.065    0.070    0.637    0.733
 dbt_copy                            12 10.1    0.000    0.000    0.115    0.708
 dbcsr_complete_redistribute        298  8.4    0.018    0.022    0.674    0.689
 dbt_reshape                          8 11.6    0.016    0.021    0.087    0.679
 compute_vec_Sigma_x_minus_vxc_       1  4.0    0.000    0.000    0.671    0.671
 broadcast_input_information        241  6.0    0.181    0.204    0.646    0.667
 mp_waitall_2                        50 15.7    0.068    0.661    0.068    0.661
 dbt_communicate_buffer               8 12.6    0.002    0.002    0.063    0.655
 pw_poisson_rebuild                  90  9.0    0.000    0.000    0.598    0.622
 ps_wavelet_create                    1 10.0    0.000    0.000    0.598    0.622
 RS_z_slice_distribution              1 11.0    0.498    0.581    0.598    0.622
 pw_copy_to_array                   897 11.8    0.383    0.609    0.383    0.609
 transfer_pw2rs_10                   90 12.0    0.216    0.268    0.582    0.603
 transfer_rs2pw_10                   90  9.0    0.219    0.232    0.576    0.583
 cp_fm_cholesky_invert              101  8.0    0.533    0.566    0.533    0.566
 mp_sum_l                          1032  6.4    0.474    0.559    0.474    0.559
 pw_poisson_set                      91  8.9    0.002    0.003    0.537    0.553
 mp_irecv_dm3                      3252 11.5    0.236    0.548    0.236    0.548
 integrate_four_center_load          90 10.0    0.000    0.001    0.445    0.526
 hfx_load_balance                     1 11.0    0.000    0.000    0.444    0.525
 copy_fm_to_dbcsr                   182  8.0    0.001    0.001    0.503    0.517
 dbt_remap                            8 10.0    0.002    0.003    0.517    0.517
 integrate_four_center_getP          90 10.0    0.036    0.041    0.506    0.515
 hfx_load_balance_range               1 12.0    0.000    0.000    0.418    0.500
 cp_fm_syrk                           2  8.5    0.445    0.493    0.445    0.493
 integrate_four_center_dist_KS       90 10.0    0.035    0.043    0.483    0.484
 Vh_1c_gg_integrals                  90  8.0    0.014    0.217    0.274    0.483
 dbt_nd_mp_comm                       8 11.0    0.000    0.000    0.460    0.483
 mp_isend_dm3                      3252 11.5    0.204    0.442    0.204    0.442
 pw_integral_ab_c1d_c1d_gs           90  9.0    0.292    0.295    0.397    0.432
 dbt_tas_multiply                     8 11.5    0.000    0.000    0.416    0.417
 dbt_tas_total                        8 12.5    0.002    0.005    0.416    0.416
 mp_max_i                           696  3.0    0.189    0.415    0.189    0.415
 calculate_rho_atom_coeff            90  6.0    0.021    0.047    0.410    0.411
 mp2_main_alloc_hfx                   1  4.0    0.173    0.400    0.173    0.400
 create_B                             1  8.0    0.000    0.000    0.389    0.396
 mp_sum_i                            21  9.7    0.229    0.392    0.229    0.392
 restraint_control                    1  2.0    0.000    0.000    0.228    0.392
 dbcsr_multiply_generic             126  8.1    0.007    0.008    0.376    0.390
 cp_fm_cholesky_decompose           102  9.0    0.382    0.386    0.382    0.386
 compute_Erpa_by_freq_int           100  8.0    0.001    0.002    0.371    0.371
 dbcsr_add_d                       6252  7.0    0.006    0.007    0.055    0.370
 copy_dbcsr_to_fm                   116  6.4    0.002    0.003    0.360    0.369
 pw_copy_from_array                 984 12.1    0.294    0.368    0.294    0.368
 fft_wrap_pw1pw2_30                 180 10.5    0.005    0.006    0.354    0.368
 pw_axpy                            895  9.3    0.327    0.364    0.327    0.364
 dbcsr_add_anytype                 6252  8.0    0.007    0.048    0.049    0.364
 mp_alltoall_z11v                   360 13.5    0.343    0.359    0.343    0.359
 mp2_eri_3c_integrate                 1  7.0    0.008    0.013    0.130    0.337
 init_scf_run                         1  3.0    0.000    0.000    0.334    0.334
 integrate_set_3c                 10743  8.0    0.105    0.287    0.122    0.327
 create_A                             1  8.0    0.001    0.001    0.310    0.318
 mp_alltoall_i11v                  1012  9.3    0.311    0.315    0.311    0.315
 dbcsr_col_vec_to_rep_row          4123  8.0    0.029    0.033    0.212    0.294
 scf_env_initial_rho_setup            1  4.0    0.000    0.000    0.287    0.287
 cp_fm_to_fm_submat_general         112 10.1    0.192    0.282    0.192    0.282
 mp_bcast_am_src                    241  7.0    0.208    0.249    0.239    0.273
 mp_bcast_i_src                     964  7.0    0.216    0.265    0.216    0.265
 mp_isend_dv                      28007 11.8    0.204    0.265    0.204    0.265
 dbt_tas_dbm                          8 13.5    0.000    0.000    0.264    0.264
 dbm_multiply                         8 15.5    0.196    0.263    0.196    0.263
 mp_bcast_dv                       4218  9.0    0.128    0.261    0.128    0.261
 qs_init_subsys                       1  2.0    0.006    0.009    0.257    0.258
 dbcsr_rep_row_to_rep_col_vec      4123  8.0    0.020    0.025    0.109    0.256
 dbt_tas_mm_1N                        6 14.5    0.000    0.000    0.178    0.245
 qs_env_setup                         1  3.0    0.000    0.000    0.241    0.244
 qs_env_rebuild_pw_env                2  3.5    0.000    0.000    0.240    0.243
 pw_env_rebuild                       1  5.0    0.001    0.001    0.239    0.242
 dbcsr_desymmetrize_deep            118  7.4    0.004    0.005    0.233    0.240
 offload_free_buffer                 98  8.5    0.211    0.240    0.211    0.240
 dbcsr_finalize                    8175 10.7    0.012    0.081    0.043    0.235
 yz_to_xz                           180 14.0    0.016    0.018    0.216    0.229
 update_ks_atom                      90  8.0    0.020    0.032    0.174    0.215
 cp_fm_redistribute_start            95  8.0    0.116    0.152    0.161    0.202
 fm_general_add_bse                   5 10.2    0.000    0.000    0.183    0.201
 pw_zero                            536 10.3    0.172    0.195    0.172    0.195
 multiply_cannon                    126  9.1    0.015    0.015    0.178    0.194
 pw_grid_setup                        4  6.0    0.000    0.000    0.187    0.190
 pw_grid_setup_internal               4  7.0    0.003    0.005    0.187    0.190
 mp_bcast_dm                       2700  9.0    0.154    0.190    0.154    0.190
 fft_wrap_pw1pw2_10                 180 10.5    0.002    0.002    0.181    0.183
 dbt_tas_estimate_result_nze          4 12.0    0.002    0.003    0.180    0.180
 hybrid_alltoall_any                370 10.9    0.010    0.011    0.150    0.171
 calculate_rho0_atom                450  9.0    0.161    0.168    0.161    0.168
 make_m2s                           252  9.1    0.007    0.007    0.144    0.164
 mp_rank_compare                   1881 12.9    0.154    0.159    0.154    0.159
 xz_to_yz                           180 11.0    0.011    0.013    0.155    0.158
 vxc_of_r_new                       534  9.0    0.001    0.024    0.004    0.152
 multiply_cannon_loop               126 10.1    0.022    0.024    0.120    0.136
 rs_scatter_matrices                 90  7.0    0.001    0.002    0.120    0.124
 dbcsr_iterator_start             51139  8.8    0.060    0.094    0.071    0.117
 cp_fm_symm                          90  7.0    0.109    0.117    0.109    0.117
 cp_fm_uplo_to_full                 103  8.0    0.034    0.117    0.034    0.117
 mp_alltoall_i22                    416  9.1    0.092    0.117    0.092    0.117
 dbcsr_copy                       17325  7.6    0.062    0.070    0.101    0.113
 dbcsr_merge_all                   7127 11.4    0.016    0.089    0.023    0.111
 make_images                        252 10.1    0.015    0.017    0.088    0.102
 create_integ_mat                     4  6.0    0.001    0.002    0.085    0.096
 scale_and_distribute               180 10.0    0.089    0.096    0.089    0.096
 array2fm                             4  7.0    0.000    0.000    0.068    0.091
 pw_grid_sort                         4  8.0    0.044    0.055    0.068    0.084
 dbcsr_iterator_stop              51139  8.8    0.045    0.064    0.054    0.076
 pw_scale                           357  9.5    0.059    0.076    0.059    0.076
 postprocess_bse                      1  9.0    0.000    0.000    0.071    0.075
 dbt_tas_replicate                    8 13.5    0.030    0.042    0.068    0.073
 mp_bcast_iv                        386  5.7    0.033    0.066    0.033    0.066
 dbcsr_create_new                 20349  8.8    0.048    0.052    0.060    0.066
 create_fast_row_vec_access        8246  8.0    0.034    0.039    0.052    0.059
 create_fast_col_vec_access        8246  8.0    0.034    0.039    0.052    0.058
 mult_B_with_W                        1  8.0    0.000    0.000    0.055    0.058
 scf_post_calculation_gpw             1  3.0    0.000    0.000    0.057    0.058
 write_available_results              1  4.0    0.000    0.000    0.057    0.057
 write_mo_free_results                1  5.0    0.003    0.004    0.057    0.057
 make_images_sizes                  252 11.1    0.000    0.000    0.042    0.052
 mp_alltoall_i44                    252 12.1    0.042    0.052    0.042    0.052
 fm_general_add_bse_1_setup           5 11.2    0.045    0.051    0.045    0.051
 array2fm_info                        4  8.0    0.034    0.050    0.036    0.051
 mp_sum_im                        10912 13.0    0.041    0.051    0.041    0.051
 self_consistency_check              89  5.0    0.000    0.000    0.040    0.050
 cp_sm_mix                           89  6.0    0.000    0.001    0.040    0.050
 mp_max_d                            91  6.9    0.039    0.049    0.039    0.049
 mixing_init                          1  5.0    0.041    0.048    0.048    0.048
 mp_irecv_dv                      27993 11.8    0.031    0.048    0.031    0.048
 fm_general_add_bse_5_comm_buff       5 11.2    0.000    0.000    0.027    0.046
 communicate_buffer                   5 12.2    0.001    0.001    0.027    0.046
 dbt_distribution_new_expert         76 10.1    0.001    0.002    0.044    0.046
 dbt_split_blocks_generic            20  8.8    0.010    0.012    0.043    0.045
 compute_max_radius                   1  6.0    0.044    0.045    0.044    0.045
 fm_general_add_bse_4_buf_from_       1 10.0    0.039    0.044    0.039    0.044
 mp_sum_iv                          349  9.5    0.036    0.044    0.036    0.044
 multiply_cannon_metrocomm3        3416 11.1    0.006    0.006    0.027    0.044
 fm_general_add_bse_4_buf_from_       1 10.0    0.035    0.043    0.035    0.043
 make_images_data                   252 11.1    0.003    0.004    0.018    0.042
 write_mo_set_to_restart             89  5.0    0.001    0.008    0.012    0.041
 cube_transpose_2                   180 11.0    0.004    0.004    0.037    0.041
 mp_allgather_i34                   126 10.1    0.035    0.041    0.035    0.041
 abc_contract                     10743  9.0    0.017    0.040    0.017    0.040
 dbcsr_work_create                 7779 10.5    0.005    0.026    0.008    0.038
 pw_grid_distribute                   4  8.0    0.010    0.013    0.021    0.038
 get_multipoles_mo                    1 10.0    0.000    0.000    0.033    0.037
 write_mo_set_low                     5  6.0    0.000    0.000    0.010    0.037
 cp_fm_write_unformatted              5  7.0    0.009    0.031    0.010    0.037
 dbcsr_work_destroy_all            7779 11.5    0.005    0.026    0.007    0.037
 dbcsr_sym_matrix_vector_mult_l    4123  8.0    0.016    0.024    0.029    0.036
 dbcsr_crop_matrix                  450 10.0    0.003    0.003    0.033    0.035
 mp_comm_split_direct                48 14.5    0.025    0.035    0.025    0.035
 mp_maxloc_dv                      1533  1.0    0.033    0.035    0.033    0.035
 dbcsr_scale_anytype               6255  9.0    0.012    0.013    0.031    0.035
 cube_transpose_1                   180 14.0    0.003    0.004    0.032    0.034
 dbt_tas_distribution_new            96 11.8    0.023    0.023    0.033    0.034
 mp_cart_rank                    114924 10.4    0.028    0.033    0.028    0.033
 cp_fm_create                       445  7.8    0.020    0.032    0.020    0.032
 multiply_cannon_metrocomm1        3416 11.1    0.004    0.004    0.016    0.032
 dbcsr_data_release              102122 10.0    0.018    0.031    0.018    0.031
 dbm_reserve_blocks                  68 14.1    0.028    0.031    0.028    0.031
 pw_grid_remap                        4  8.0    0.003    0.003    0.029    0.031
 mp_alltoall_i                       40 13.9    0.020    0.030    0.020    0.030
 sort_shells                          4  9.0    0.024    0.030    0.024    0.030
 get_2c_integrals                     1  6.0    0.000    0.000    0.027    0.029
 mp_send_dv                           5  8.0    0.002    0.028    0.002    0.028
 dbcsr_iterator_seek              51139  9.8    0.011    0.028    0.011    0.028
 mp_sum_im3                           4  9.0    0.026    0.028    0.026    0.028
 multiply_cannon_multrec           3416 11.1    0.016    0.027    0.017    0.028
 print_transition_amplitudes          1 10.0    0.000    0.000    0.027    0.028
 print_transition_amplitudes_co      50 11.0    0.000    0.001    0.027    0.027
 filter_eigvec_contrib               50 12.0    0.016    0.017    0.027    0.027
 dbcsr_copy_submatrix               450 11.0    0.004    0.004    0.025    0.027
 mp2_main_free_hfx                    1  4.0    0.011    0.026    0.011    0.026
 hirshfeld_integration                1  6.0    0.001    0.006    0.026    0.026
 mp_cart_sub                        238  8.4    0.024    0.025    0.024    0.025
 dbt_create_new                      40  9.5    0.001    0.001    0.022    0.024
 array2fm_fill                        4  8.0    0.007    0.013    0.011    0.024
 cp_dbcsr_sm_fm_multiply              3 11.0    0.000    0.000    0.023    0.023
 multiply_cannon_metrocomm4        3196 11.1    0.009    0.010    0.019    0.023
 xc_pw_smooth                        89 10.0    0.000    0.000    0.020    0.023
 dbt_tas_communicate_buffer          17 15.8    0.002    0.002    0.016    0.022
 Q_trace_and_add_unit_matrix        100  8.0    0.001    0.001    0.015    0.022
 calculate_hirshfeld_normalizat       1  6.0    0.001    0.007    0.021    0.022
 dbcsr_destroy                    12017  8.5    0.012    0.017    0.017    0.022
 pw_grid_assign                       4  8.0    0.014    0.021    0.020    0.022
 dbcsr_set                        17088  8.5    0.015    0.016    0.019    0.021
 dbt_tas_reserve_blocks_index        60 13.0    0.001    0.001    0.019    0.021
 dbcsr_data_new                   48022 10.6    0.010    0.021    0.010    0.021
 convert_to_new_pgrid                24 13.5    0.008    0.010    0.018    0.020
 dbt_tas_reshape                      9 14.0    0.000    0.000    0.018    0.019
 multiply_cannon_metrocomm2        3102 11.1    0.009    0.010    0.017    0.019
 dbt_tas_mm_2                         2 14.5    0.000    0.000    0.018    0.018
 array2fm_waitall                     4  8.0    0.000    0.000    0.001    0.018
 fm_general_add_bse_6_buffer_to       1 10.0    0.009    0.018    0.009    0.018
 mp_wait                            139  9.0    0.004    0.018    0.004    0.018
 mp_bcast_av                        767  1.0    0.006    0.008    0.013    0.018
 array2fm_buffer_send                 4  8.0    0.016    0.017    0.016    0.017
 fm_general_add_bse_3_alloc_buf       5 11.2    0.010    0.017    0.010    0.017
 fm_general_add_bse_6_buffer_to       1 10.0    0.009    0.017    0.009    0.017
 mp_bcast_iv_src                    241  7.0    0.010    0.017    0.010    0.017
 -------------------------------------------------------------------------------

 The number of warnings for this run is : 2
 
 -------------------------------------------------------------------------------
  **** **** ******  **  PROGRAM ENDED AT                 2025-03-11 06:07:30.871
 ***** ** ***  *** **   PROGRAM RAN ON                              i05r05c01s01
 **    ****   ******    PROGRAM RAN BY                                   di38fab
 ***** **    ** ** **   PROGRAM PROCESS ID                                789443
  **** **  *******  **  PROGRAM STOPPED IN /hppfs/scratch/04/di38fab/05_MOL/aUKB
                                           qsEOTmq69kFe5R_nOg/5k_set_final_qzvp/
                                           NEWKOP/aug-cc-pVDZ
