SIRIUS 7.5.2, git hash: https://api.github.com/repos/electronic-structure/SIRIUS/git/ref/tags/v7.5.2
 DBCSR| CPU Multiplication driver                                           XSMM (U)
 DBCSR| Multrec recursion limit                                              512 (U)
 DBCSR| Multiplication stack size                                           1000 (D)
 DBCSR| Maximum elements for images                                    UNLIMITED (U)
 DBCSR| Multiplicative factor virtual images                                   1 (U)
 DBCSR| Use multiplication densification                                       T (D)
 DBCSR| Multiplication size stacks                                             3 (U)
 DBCSR| Use memory pool for CPU allocation                                     F (U)
 DBCSR| Number of 3D layers                                               SINGLE (U)
 DBCSR| Use MPI memory allocation                                              F (U)
 DBCSR| Use RMA algorithm                                                      F (U)
 DBCSR| Use Communication thread                                               T (U)
 DBCSR| Communication thread load                                             75 (D)
 DBCSR| MPI: My process id                                                     0
 DBCSR| MPI: Number of processes                                             192
 DBCSR| OMP: Current number of threads                                         4
 DBCSR| OMP: Max number of threads                                             4
 DBCSR| Split modifier for TAS multiplication algorithm                  1.0E+00 (U)


  **** **** ******  **  PROGRAM STARTED AT               2025-03-27 10:25:48.057
 ***** ** ***  *** **   PROGRAM STARTED ON                 n2cn0708.ab2021.local
 **    ****   ******    PROGRAM STARTED BY                              metdyn02
 ***** **    ** ** **   PROGRAM PROCESS ID                                660370
  **** **  *******  **  PROGRAM STARTED IN /scratch/hpc-prf-metdyn/metdyn02_Remi
                                           /10_MOL/05_MOL/aUKBqsEOTmq69kFe5R_nOg
                                           /5k_set_final_qzvp/LUHPAF/SZVSR/TDDFT
                                           /1e-4

 CP2K| version string:                 CP2K version 2025.1 (Development Version)
 CP2K| source code revision number:                                  git:9754b87
 CP2K| cp2kflags: omp libint fftw3 libxc libgrpp elpa parallel scalapack mpi_f08
 CP2K|             cosma xsmm plumed2 spglib sirius libvori libbqb libvdwxc hdf5
 CP2K| is freely available from                            https://www.cp2k.org/
 CP2K| Program compiled at                          Sun Mar 23 00:44:01 CET 2025
 CP2K| Program compiled on                                              n2login1
 CP2K| Program compiled for                                                local
 CP2K| Data directory path    /opt/software/pc2/EB-SW/software/CP2K/2024.1-foss-
 CP2K| Input file name                                                    GW.inp

 GLOBAL| Force Environment number                                              1
 GLOBAL| Basis set file name            /scratch/hpc-prf-metdyn/metdyn02_Remi/BA
 GLOBAL| Potential file name            /pc2/groups/hpc-prf-metdyn/metdyn02_Remi
 GLOBAL| MM Potential file name                                     MM_POTENTIAL
 GLOBAL| Coordinate file name                                      __STD_INPUT__
 GLOBAL| Method name                                                        CP2K
 GLOBAL| Project name                                                       MoS2
 GLOBAL| Run type                                                         ENERGY
 GLOBAL| FFT library                                                       FFTW3
 GLOBAL| Diagonalization library                                            ELPA
 GLOBAL| DGEMM library                                                      BLAS
 GLOBAL| Minimum number of eigenvectors for ELPA usage                        16
 GLOBAL| Orthonormality check for eigenvectors                          DISABLED
 GLOBAL| Matrix multiplication library                                     COSMA
 GLOBAL| All-to-all communication in single precision                          F
 GLOBAL| FFTs using library dependent lengths                                  F
 GLOBAL| Grid backend                                                       AUTO
 GLOBAL| Global print level                                               MEDIUM
 GLOBAL| MPI I/O enabled                                                       T
 GLOBAL| Total number of message passing processes                           192
 GLOBAL| Number of threads for this process                                    4
 GLOBAL| This output is from process                                           0
 GLOBAL| OpenMP stack size per thread (OMP_STACKSIZE)                    default
 GLOBAL| CPU model name                          AMD EPYC 7763 64-Core Processor
 GLOBAL| CPUID                                                              1002

 MEMORY| system memory details [Kb]
 MEMORY|                        rank 0           min           max       average
 MEMORY| MemTotal            263899264     263899260     263899264     263899262
 MEMORY| MemFree             245487128     244363712     246760312     245463763
 MEMORY| Buffers                 44120         44120        124948         76784
 MEMORY| Cached                6019804       5010876       7394696       6192047
 MEMORY| Slab                  1752512       1540988       1752512       1656038
 MEMORY| SReclaimable           289200        245600        360716        290302
 MEMORY| MemLikelyFree       251840252     251840252     252268044     252022896


 *** Fundamental physical constants (SI units) ***

 *** Literature: B. J. Mohr and B. N. Taylor,
 ***             CODATA recommended values of the fundamental physical
 ***             constants: 2006, Web Version 5.1
 ***             http://physics.nist.gov/constants

 Speed of light in vacuum [m/s]                             2.99792458000000E+08
 Magnetic constant or permeability of vacuum [N/A**2]       1.25663706143592E-06
 Electric constant or permittivity of vacuum [F/m]          8.85418781762039E-12
 Planck constant (h) [J*s]                                  6.62606896000000E-34
 Planck constant (h-bar) [J*s]                              1.05457162825177E-34
 Elementary charge [C]                                      1.60217648700000E-19
 Electron mass [kg]                                         9.10938215000000E-31
 Electron g factor [ ]                                     -2.00231930436220E+00
 Proton mass [kg]                                           1.67262163700000E-27
 Fine-structure constant                                    7.29735253760000E-03
 Rydberg constant [1/m]                                     1.09737315685270E+07
 Avogadro constant [1/mol]                                  6.02214179000000E+23
 Boltzmann constant [J/K]                                   1.38065040000000E-23
 Atomic mass unit [kg]                                      1.66053878200000E-27
 Bohr radius [m]                                            5.29177208590000E-11

 *** Conversion factors ***

 [u] -> [a.u.]                                              1.82288848426455E+03
 [Angstrom] -> [Bohr] = [a.u.]                              1.88972613288564E+00
 [a.u.] = [Bohr] -> [Angstrom]                              5.29177208590000E-01
 [a.u.] -> [s]                                              2.41888432650478E-17
 [a.u.] -> [fs]                                             2.41888432650478E-02
 [a.u.] -> [J]                                              4.35974393937059E-18
 [a.u.] -> [N]                                              8.23872205491840E-08
 [a.u.] -> [K]                                              3.15774647902944E+05
 [a.u.] -> [kJ/mol]                                         2.62549961709828E+03
 [a.u.] -> [kcal/mol]                                       6.27509468713739E+02
 [a.u.] -> [Pa]                                             2.94210107994716E+13
 [a.u.] -> [bar]                                            2.94210107994716E+08
 [a.u.] -> [atm]                                            2.90362800883016E+08
 [a.u.] -> [eV]                                             2.72113838565563E+01
 [a.u.] -> [Hz]                                             6.57968392072181E+15
 [a.u.] -> [1/cm] (wave numbers)                            2.19474631370540E+05
 [a.u./Bohr**2] -> [1/cm]                                   5.14048714338585E+03
 

 CELL_TOP| Volume [angstrom^3]:                                     27000.000000
 CELL_TOP| Vector a [angstrom    30.000     0.000     0.000   |a| =    30.000000
 CELL_TOP| Vector b [angstrom     0.000    30.000     0.000   |b| =    30.000000
 CELL_TOP| Vector c [angstrom     0.000     0.000    30.000   |c| =    30.000000
 CELL_TOP| Angle (b,c), alpha [degree]:                                90.000000
 CELL_TOP| Angle (a,c), beta  [degree]:                                90.000000
 CELL_TOP| Angle (a,b), gamma [degree]:                                90.000000
 CELL_TOP| Numerically orthorhombic:                                         YES
 CELL_TOP| Periodicity                                                      NONE

 GENERATE|  Preliminary Number of Bonds generated:                             0
 GENERATE|  Achieved consistency in connectivity generation.

 CELL| Volume [angstrom^3]:                                         27000.000000
 CELL| Vector a [angstrom]:      30.000     0.000     0.000   |a| =    30.000000
 CELL| Vector b [angstrom]:       0.000    30.000     0.000   |b| =    30.000000
 CELL| Vector c [angstrom]:       0.000     0.000    30.000   |c| =    30.000000
 CELL| Angle (b,c), alpha [degree]:                                    90.000000
 CELL| Angle (a,c), beta  [degree]:                                    90.000000
 CELL| Angle (a,b), gamma [degree]:                                    90.000000
 CELL| Numerically orthorhombic:                                             YES
 CELL| Periodicity                                                          NONE

 CELL_REF| Volume [angstrom^3]:                                     27000.000000
 CELL_REF| Vector a [angstrom    30.000     0.000     0.000   |a| =    30.000000
 CELL_REF| Vector b [angstrom     0.000    30.000     0.000   |b| =    30.000000
 CELL_REF| Vector c [angstrom     0.000     0.000    30.000   |c| =    30.000000
 CELL_REF| Angle (b,c), alpha [degree]:                                90.000000
 CELL_REF| Angle (a,c), beta  [degree]:                                90.000000
 CELL_REF| Angle (a,b), gamma [degree]:                                90.000000
 CELL_REF| Numerically orthorhombic:                                         YES
 CELL_REF| Periodicity                                                      NONE

 *******************************************************************************
 *******************************************************************************
 **                                                                           **
 **     #####                         ##              ##                      **
 **    ##   ##            ##          ##              ##                      **
 **   ##     ##                       ##            ######                    **
 **   ##     ##  ##   ##  ##   #####  ##  ##   ####   ##    #####    #####    **
 **   ##     ##  ##   ##  ##  ##      ## ##   ##      ##   ##   ##  ##   ##   **
 **   ##  ## ##  ##   ##  ##  ##      ####     ###    ##   ######   ######    **
 **    ##  ###   ##   ##  ##  ##      ## ##      ##   ##   ##       ##        **
 **     #######   #####   ##   #####  ##  ##  ####    ##    #####   ##        **
 **           ##                                                    ##        **
 **                                                                           **
 **                                                ... make the atoms dance   **
 **                                                                           **
 **            Copyright (C) by CP2K developers group (2000-2025)             **
 **                      J. Chem. Phys. 152, 194103 (2020)                    **
 **                                                                           **
 *******************************************************************************

 DFT| Spin restricted Kohn-Sham (RKS) calculation                            RKS
 DFT| Multiplicity                                                             1
 DFT| Number of spin states                                                    1
 DFT| Charge                                                                   0
 DFT| Self-interaction correction (SIC)                                       NO
 DFT| Cutoffs: density                                              1.000000E-10
 DFT|          gradient                                             1.000000E-10
 DFT|          tau                                                  1.000000E-10
 DFT|          cutoff_smoothing_range                               0.000000E+00
 DFT| XC density smoothing                                                  NONE
 DFT| XC derivatives                                                          PW

 FUNCTIONAL| PBE:
 FUNCTIONAL| J.P.Perdew, K.Burke, M.Ernzerhof, Phys. Rev. Letter, vol. 77, n 18,
 FUNCTIONAL|  pp. 3865-3868, (1996)sx=0.750sc=1.000{spin unpolarized}           


 QS| Method:                                                                GAPW
 QS| Density plane wave grid type                        NON-SPHERICAL FULLSPACE
 QS| Number of grid levels:                                                    4
 QS| Density cutoff [a.u.]:                                                250.0
 QS| Multi grid cutoff [a.u.]: 1) grid level                               250.0
 QS|                           2) grid level                                83.3
 QS|                           3) grid level                                27.8
 QS|                           4) grid level                                 9.3
 QS| Grid level progression factor:                                          3.0
 QS| Relative density cutoff [a.u.]:                                        50.0
 QS| Interaction thresholds: eps_pgf_orb:                                1.0E-12
 QS|                         eps_filter_matrix:                          0.0E+00
 QS|                         eps_core_charge:                            1.0E-14
 QS|                         eps_rho_gspace:                             1.0E-12
 QS|                         eps_rho_rspace:                             1.0E-12
 QS|                         eps_gvg_rspace:                             1.0E-06
 QS|                         eps_ppl:                                    1.0E-02
 QS|                         eps_ppnl:                                   1.0E-08
 QS| GAPW|      One center basis from orbital basis primitives
 QS| GAPW|                   eps_fit:                                    1.0E-04
 QS| GAPW|                   eps_iso:                                    1.0E-12
 QS| GAPW|                   eps_svd:                                    1.0E-08
 QS| GAPW|                   eps_cpc:                                    1.0E-12
 QS| GAPW|   atom-r-grid: quadrature:                                     GC_LOG
 QS| GAPW|      atom-s-grid:  max l :                                          4
 QS| GAPW|      max_l_rho0 :                                                   2
 QS| GAPW|      At least one kind is NOT PAW, i.e. it has only soft AO 
 QS| GAPW|      The NOT PAW atoms are treated fully GPW


 ATOMIC KIND INFORMATION

  1. Atomic kind: N                                     Number of atoms:       3

     Orbital Basis Set                                      aug-SZV-MOLOPT-ae-SR

       Number of orbital shell sets:                                           2
       Number of orbital shells:                                               6
       Number of primitive Cartesian functions:                                7
       Number of Cartesian basis functions:                                   15
       Number of spherical basis functions:                                   14
       Norm type:                                                              2

       Normalised Cartesian orbitals:

                        Set   Shell   Orbital            Exponent    Coefficient

                          1       1    1s                0.112012       0.000000
                                                         0.285714       0.194997
                                                         0.878497       0.258372
                                                         3.780456      -0.193164

                          1       2    2s                0.112012       0.083551
                                                         0.285714      -0.189186
                                                         0.878497      -0.469875
                                                         3.780456      -0.002085

                          1       3    2px               0.112012       0.000000
                                                         0.285714       0.116706
                                                         0.878497       0.736704
                                                         3.780456       1.171553
                          1       3    2py               0.112012       0.000000
                                                         0.285714       0.116706
                                                         0.878497       0.736704
                                                         3.780456       1.171553
                          1       3    2pz               0.112012       0.000000
                                                         0.285714       0.116706
                                                         0.878497       0.736704
                                                         3.780456       1.171553

                          1       4    3px               0.112012       0.141957
                                                         0.285714      -0.286713
                                                         0.878497       0.074784
                                                         3.780456       0.008085
                          1       4    3py               0.112012       0.141957
                                                         0.285714      -0.286713
                                                         0.878497       0.074784
                                                         3.780456       0.008085
                          1       4    3pz               0.112012       0.141957
                                                         0.285714      -0.286713
                                                         0.878497       0.074784
                                                         3.780456       0.008085

                          1       5    3dx2              0.112012      -0.000364
                                                         0.285714       0.186009
                                                         0.878497      -0.044751
                                                         3.780456       1.815169
                          1       5    3dxy              0.112012      -0.000630
                                                         0.285714       0.322177
                                                         0.878497      -0.077512
                                                         3.780456       3.143965
                          1       5    3dxz              0.112012      -0.000630
                                                         0.285714       0.322177
                                                         0.878497      -0.077512
                                                         3.780456       3.143965
                          1       5    3dy2              0.112012      -0.000364
                                                         0.285714       0.186009
                                                         0.878497      -0.044751
                                                         3.780456       1.815169
                          1       5    3dyz              0.112012      -0.000630
                                                         0.285714       0.322177
                                                         0.878497      -0.077512
                                                         3.780456       3.143965
                          1       5    3dz2              0.112012      -0.000364
                                                         0.285714       0.186009
                                                         0.878497      -0.044751
                                                         3.780456       1.815169

                          2       1    1s               99.106169       3.454881
                                                        18.052312       3.341410
                                                         4.885660       1.041372

     RI Auxiliary Basis Set             RI_aug-SZV-MOLOPT-ae-SR_N_RI_036_s_p_d_f

       Number of orbital shell sets:                                          12
       Number of orbital shells:                                              12
       Number of primitive Cartesian functions:                               12
       Number of Cartesian basis functions:                                   42
       Number of spherical basis functions:                                   36
       Norm type:                                                              2

       Normalised Cartesian orbitals:

                        Set   Shell   Orbital            Exponent    Coefficient

                          1       1    1s                0.362114       0.332693

                          2       1    6px               0.499696       0.598857
                          2       1    6py               0.499696       0.598857
                          2       1    6pz               0.499696       0.598857

                          3       1    9dx2              0.588659       0.651135
                          3       1    9dxy              0.588659       1.127800
                          3       1    9dxz              0.588659       1.127800
                          3       1    9dy2              0.588659       0.651135
                          3       1    9dyz              0.588659       1.127800
                          3       1    9dz2              0.588659       0.651135

                          4       1    2s                0.631634       0.504963

                          5       1   12fx3              0.736605       0.740002
                          5       1   12fx2y             0.736605       1.654695
                          5       1   12fx2z             0.736605       1.654695
                          5       1   12fxy2             0.736605       1.654695
                          5       1   12fxyz             0.736605       2.866016
                          5       1   12fxz2             0.736605       1.654695
                          5       1   12fy3              0.736605       0.740002
                          5       1   12fy2z             0.736605       1.654695
                          5       1   12fyz2             0.736605       1.654695
                          5       1   12fz3              0.736605       0.740002

                          6       1    7px               0.883396       1.220771
                          6       1    7py               0.883396       1.220771
                          6       1    7pz               0.883396       1.220771

                          7       1   10dx2              1.153946       2.114628
                          7       1   10dxy              1.153946       3.662643
                          7       1   10dxz              1.153946       3.662643
                          7       1   10dy2              1.153946       2.114628
                          7       1   10dyz              1.153946       3.662643
                          7       1   10dz2              1.153946       2.114628

                          8       1    3s                2.978947       1.616059

                          9       1    8px               4.407746       9.103549
                          9       1    8py               4.407746       9.103549
                          9       1    8pz               4.407746       9.103549

                         10       1   11dx2              5.691883      34.522914
                         10       1   11dxy              5.691883      59.795442
                         10       1   11dxz              5.691883      59.795442
                         10       1   11dy2              5.691883      34.522914
                         10       1   11dyz              5.691883      59.795442
                         10       1   11dz2              5.691883      34.522914

                         11       1    4s               18.342052       6.316784

                         12       1    5s              106.308958      23.595951

       Atomic covalent radius [Angstrom]:                                  0.750

       Atomic van der Waals radius [Angstrom]:                             1.550

     The atoms of this atomic kind are PAW atoms (GAPW):
       Hard Gaussian function radius:                                      1.512
       Rho0 radius:                                                        1.512
       Maximum GTO radius used for PAW projector construction:            24.566

     GAPW Soft Basis Set                               aug-SZV-MOLOPT-ae-SR_soft

       Number of orbital shell sets:                                           2
       Number of orbital shells:                                               6
       Number of primitive Cartesian functions:                                4
       Number of Cartesian basis functions:                                   15
       Number of spherical basis functions:                                   14
       Norm type:                                                              2

       Normalised Cartesian orbitals:

                        Set   Shell   Orbital            Exponent    Coefficient

                          1       1    1s                0.112012       0.000000
                                                         0.285714       0.194997
                                                         0.878497       0.258372
                                                         3.780456      -0.193164

                          1       2    2s                0.112012       0.083551
                                                         0.285714      -0.189186
                                                         0.878497      -0.469875
                                                         3.780456      -0.002085

                          1       3    2px               0.112012       0.000000
                                                         0.285714       0.116706
                                                         0.878497       0.736704
                                                         3.780456       1.171553
                          1       3    2py               0.112012       0.000000
                                                         0.285714       0.116706
                                                         0.878497       0.736704
                                                         3.780456       1.171553
                          1       3    2pz               0.112012       0.000000
                                                         0.285714       0.116706
                                                         0.878497       0.736704
                                                         3.780456       1.171553

                          1       4    3px               0.112012       0.141957
                                                         0.285714      -0.286713
                                                         0.878497       0.074784
                                                         3.780456       0.008085
                          1       4    3py               0.112012       0.141957
                                                         0.285714      -0.286713
                                                         0.878497       0.074784
                                                         3.780456       0.008085
                          1       4    3pz               0.112012       0.141957
                                                         0.285714      -0.286713
                                                         0.878497       0.074784
                                                         3.780456       0.008085

                          1       5    3dx2              0.112012      -0.000364
                                                         0.285714       0.186009
                                                         0.878497      -0.044751
                                                         3.780456       1.815169
                          1       5    3dxy              0.112012      -0.000630
                                                         0.285714       0.322177
                                                         0.878497      -0.077512
                                                         3.780456       3.143965
                          1       5    3dxz              0.112012      -0.000630
                                                         0.285714       0.322177
                                                         0.878497      -0.077512
                                                         3.780456       3.143965
                          1       5    3dy2              0.112012      -0.000364
                                                         0.285714       0.186009
                                                         0.878497      -0.044751
                                                         3.780456       1.815169
                          1       5    3dyz              0.112012      -0.000630
                                                         0.285714       0.322177
                                                         0.878497      -0.077512
                                                         3.780456       3.143965
                          1       5    3dz2              0.112012      -0.000364
                                                         0.285714       0.186009
                                                         0.878497      -0.044751
                                                         3.780456       1.815169

                          2       1    1s         

     AE Potential information for                                            ALL

       Description:                                       All-electron potential
                                          Krack, Parrinello, PCCP 2, 2105 (2000)

       Gaussian exponent of the core charge distribution:               5.979100
       Electronic configuration (s p d ...):                           4   3   0

  2. Atomic kind: O                                     Number of atoms:       3

     Orbital Basis Set                                      aug-SZV-MOLOPT-ae-SR

       Number of orbital shell sets:                                           2
       Number of orbital shells:                                               6
       Number of primitive Cartesian functions:                                7
       Number of Cartesian basis functions:                                   15
       Number of spherical basis functions:                                   14
       Norm type:                                                              2

       Normalised Cartesian orbitals:

                        Set   Shell   Orbital            Exponent    Coefficient

                          1       1    1s                0.162492       0.000000
                                                         0.380389       0.241686
                                                         1.169596       0.320234
                                                         5.033151      -0.239413

                          1       2    2s                0.162492       0.120425
                                                         0.380389       0.131001
                                                         1.169596      -0.000041
                                                         5.033151      -0.089217

                          1       3    2px               0.162492       0.000000
                                                         0.380389       0.166903
                                                         1.169596       1.053568
                                                         5.033151       1.675450
                          1       3    2py               0.162492       0.000000
                                                         0.380389       0.166903
                                                         1.169596       1.053568
                                                         5.033151       1.675450
                          1       3    2pz               0.162492       0.000000
                                                         0.380389       0.166903
                                                         1.169596       1.053568
                                                         5.033151       1.675450

                          1       4    3px               0.162492       0.001278
                                                         0.380389       0.422682
                                                         1.169596       0.000775
                                                         5.033151       0.003884
                          1       4    3py               0.162492       0.001278
                                                         0.380389       0.422682
                                                         1.169596       0.000775
                                                         5.033151       0.003884
                          1       4    3pz               0.162492       0.001278
                                                         0.380389       0.422682
                                                         1.169596       0.000775
                                                         5.033151       0.003884

                          1       5    3dx2              0.162492      -0.037898
                                                         0.380389       0.380180
                                                         1.169596       0.208664
                                                         5.033151       1.207157
                          1       5    3dxy              0.162492      -0.065641
                                                         0.380389       0.658491
                                                         1.169596       0.361417
                                                         5.033151       2.090858
                          1       5    3dxz              0.162492      -0.065641
                                                         0.380389       0.658491
                                                         1.169596       0.361417
                                                         5.033151       2.090858
                          1       5    3dy2              0.162492      -0.037898
                                                         0.380389       0.380180
                                                         1.169596       0.208664
                                                         5.033151       1.207157
                          1       5    3dyz              0.162492      -0.065641
                                                         0.380389       0.658491
                                                         1.169596       0.361417
                                                         5.033151       2.090858
                          1       5    3dz2              0.162492      -0.037898
                                                         0.380389       0.380180
                                                         1.169596       0.208664
                                                         5.033151       1.207157

                          2       1    1s              130.709321       4.251943
                                                        23.808866       4.112294
                                                         6.443608       1.281623

     RI Auxiliary Basis Set             RI_aug-SZV-MOLOPT-ae-SR_N_RI_034_s_p_d_f

       Number of orbital shell sets:                                          12
       Number of orbital shells:                                              12
       Number of primitive Cartesian functions:                               12
       Number of Cartesian basis functions:                                   39
       Number of spherical basis functions:                                   34
       Norm type:                                                              2

       Normalised Cartesian orbitals:

                        Set   Shell   Orbital            Exponent    Coefficient

                          1       1    1s                0.437626       0.383475

                          2       1   10dx2              0.833911       1.197758
                          2       1   10dxy              0.833911       2.074578
                          2       1   10dxz              0.833911       2.074578
                          2       1   10dy2              0.833911       1.197758
                          2       1   10dyz              0.833911       2.074578
                          2       1   10dz2              0.833911       1.197758

                          3       1    6px               0.900493       1.250376
                          3       1    6py               0.900493       1.250376
                          3       1    6pz               0.900493       1.250376

                          4       1   12fx3              1.229346       2.342726
                          4       1   12fx2y             1.229346       5.238494
                          4       1   12fx2z             1.229346       5.238494
                          4       1   12fxy2             1.229346       5.238494
                          4       1   12fxyz             1.229346       9.073337
                          4       1   12fxz2             1.229346       5.238494
                          4       1   12fy3              1.229346       2.342726
                          4       1   12fy2z             1.229346       5.238494
                          4       1   12fyz2             1.229346       5.238494
                          4       1   12fz3              1.229346       2.342726

                          5       1    7px               1.580726       2.526451
                          5       1    7py               1.580726       2.526451
                          5       1    7pz               1.580726       2.526451

                          6       1    2s                1.930028       1.167032

                          7       1   11dx2              3.355577      13.693108
                          7       1   11dxy              3.355577      23.717160
                          7       1   11dxz              3.355577      23.717160
                          7       1   11dy2              3.355577      13.693108
                          7       1   11dyz              3.355577      23.717160
                          7       1   11dz2              3.355577      13.693108

                          8       1    3s                7.045462       3.082068

                          9       1    8px               7.187234      16.774219
                          9       1    8py               7.187234      16.774219
                          9       1    8pz               7.187234      16.774219

                         10       1    9px              31.206613     105.135257
                         10       1    9py              31.206613     105.135257
                         10       1    9pz              31.206613     105.135257

                         11       1    4s               33.536295       9.932222

                         12       1    5s              158.844986      31.888950

       Atomic covalent radius [Angstrom]:                                  0.730

       Atomic van der Waals radius [Angstrom]:                             1.520

     The atoms of this atomic kind are PAW atoms (GAPW):
       Hard Gaussian function radius:                                      1.512
       Rho0 radius:                                                        1.512
       Maximum GTO radius used for PAW projector construction:            24.566

     GAPW Soft Basis Set                               aug-SZV-MOLOPT-ae-SR_soft

       Number of orbital shell sets:                                           2
       Number of orbital shells:                                               6
       Number of primitive Cartesian functions:                                3
       Number of Cartesian basis functions:                                   15
       Number of spherical basis functions:                                   14
       Norm type:                                                              2

       Normalised Cartesian orbitals:

                        Set   Shell   Orbital            Exponent    Coefficient

                          1       1    1s                0.162492       0.000000
                                                         0.380389       0.241686
                                                         1.169596       0.320234

                          1       2    2s                0.162492       0.120425
                                                         0.380389       0.131001
                                                         1.169596      -0.000041

                          1       3    2px               0.162492       0.000000
                                                         0.380389       0.166903
                                                         1.169596       1.053568
                          1       3    2py               0.162492       0.000000
                                                         0.380389       0.166903
                                                         1.169596       1.053568
                          1       3    2pz               0.162492       0.000000
                                                         0.380389       0.166903
                                                         1.169596       1.053568

                          1       4    3px               0.162492       0.001278
                                                         0.380389       0.422682
                                                         1.169596       0.000775
                          1       4    3py               0.162492       0.001278
                                                         0.380389       0.422682
                                                         1.169596       0.000775
                          1       4    3pz               0.162492       0.001278
                                                         0.380389       0.422682
                                                         1.169596       0.000775

                          1       5    3dx2              0.162492      -0.037898
                                                         0.380389       0.380180
                                                         1.169596       0.208664
                          1       5    3dxy              0.162492      -0.065641
                                                         0.380389       0.658491
                                                         1.169596       0.361417
                          1       5    3dxz              0.162492      -0.065641
                                                         0.380389       0.658491
                                                         1.169596       0.361417
                          1       5    3dy2              0.162492      -0.037898
                                                         0.380389       0.380180
                                                         1.169596       0.208664
                          1       5    3dyz              0.162492      -0.065641
                                                         0.380389       0.658491
                                                         1.169596       0.361417
                          1       5    3dz2              0.162492      -0.037898
                                                         0.380389       0.380180
                                                         1.169596       0.208664

                          2       1    1s         

     AE Potential information for                                            ALL

       Description:                                       All-electron potential
                                          Krack, Parrinello, PCCP 2, 2105 (2000)

       Gaussian exponent of the core charge distribution:               8.154466
       Electronic configuration (s p d ...):                           4   4   0

  3. Atomic kind: H                                     Number of atoms:       5

     Orbital Basis Set                                      aug-SZV-MOLOPT-ae-SR

       Number of orbital shell sets:                                           1
       Number of orbital shells:                                               4
       Number of primitive Cartesian functions:                                4
       Number of Cartesian basis functions:                                    6
       Number of spherical basis functions:                                    6
       Norm type:                                                              2

       Normalised Cartesian orbitals:

                        Set   Shell   Orbital            Exponent    Coefficient

                          1       1    2s                0.065428       0.000000
                                                         0.168855       0.083474
                                                         0.623914       0.267839
                                                         3.425251       0.276934

                          1       2    3s                0.065428      -0.066952
                                                         0.168855       0.261968
                                                         0.623914       0.081548
                                                         3.425251      -0.022414

                          1       3    4s                0.065428       0.165615
                                                         0.168855      -0.226449
                                                         0.623914      -0.005802
                                                         3.425251       0.005451

                          1       4    3px               0.065428       0.053063
                                                         0.168855      -0.030502
                                                         0.623914       0.062721
                                                         3.425251       0.019012
                          1       4    3py               0.065428       0.053063
                                                         0.168855      -0.030502
                                                         0.623914       0.062721
                                                         3.425251       0.019012
                          1       4    3pz               0.065428       0.053063
                                                         0.168855      -0.030502
                                                         0.623914       0.062721
                                                         3.425251       0.019012

     RI Auxiliary Basis Set             RI_aug-SZV-MOLOPT-ae-SR_N_RI_011_s_p_d_f

       Number of orbital shell sets:                                           7
       Number of orbital shells:                                               7
       Number of primitive Cartesian functions:                                7
       Number of Cartesian basis functions:                                   11
       Number of spherical basis functions:                                   11
       Norm type:                                                              2

       Normalised Cartesian orbitals:

                        Set   Shell   Orbital            Exponent    Coefficient

                          1       1    1s                0.220060       0.228990

                          2       1    6px               0.249217       0.250993
                          2       1    6py               0.249217       0.250993
                          2       1    6pz               0.249217       0.250993

                          3       1    2s                0.439991       0.385028

                          4       1    3s                1.250226       0.842658

                          5       1    7px               1.527347       2.420262
                          5       1    7py               1.527347       2.420262
                          5       1    7pz               1.527347       2.420262

                          6       1    4s                3.629850       1.874246

                          7       1    5s                7.032687       3.077875

       Atomic covalent radius [Angstrom]:                                  0.320

       Atomic van der Waals radius [Angstrom]:                             1.090

     AE Potential information for                                            ALL

       Description:                                       All-electron potential
                                          Krack, Parrinello, PCCP 2, 2105 (2000)

       Gaussian exponent of the core charge distribution:              12.500000
       Electronic configuration (s p d ...):                           1   0   0

  4. Atomic kind: C                                     Number of atoms:       3

     Orbital Basis Set                                      aug-SZV-MOLOPT-ae-SR

       Number of orbital shell sets:                                           2
       Number of orbital shells:                                               6
       Number of primitive Cartesian functions:                                7
       Number of Cartesian basis functions:                                   15
       Number of spherical basis functions:                                   14
       Norm type:                                                              2

       Normalised Cartesian orbitals:

                        Set   Shell   Orbital            Exponent    Coefficient

                          1       1    2s                0.114559       0.000000
                                                         0.222290       0.161536
                                                         0.683483       0.214036
                                                         2.941249      -0.160017

                          1       2    3s                0.114559       0.078076
                                                         0.222290       0.130402
                                                         0.683483      -0.084834
                                                         2.941249       0.041379

                          1       3    3px               0.114559       0.000000
                                                         0.222290       0.085276
                                                         0.683483       0.538304
                                                         2.941249       0.856045
                          1       3    3py               0.114559       0.000000
                                                         0.222290       0.085276
                                                         0.683483       0.538304
                                                         2.941249       0.856045
                          1       3    3pz               0.114559       0.000000
                                                         0.222290       0.085276
                                                         0.683483       0.538304
                                                         2.941249       0.856045

                          1       4    4px               0.114559       0.224492
                                                         0.222290      -0.546182
                                                         0.683483       0.918493
                                                         2.941249      -0.348342
                          1       4    4py               0.114559       0.224492
                                                         0.222290      -0.546182
                                                         0.683483       0.918493
                                                         2.941249      -0.348342
                          1       4    4pz               0.114559       0.224492
                                                         0.222290      -0.546182
                                                         0.683483       0.918493
                                                         2.941249      -0.348342

                          1       5    4dx2              0.114559       0.004023
                                                         0.222290       0.096934
                                                         0.683483       0.116751
                                                         2.941249       0.357653
                          1       5    4dxy              0.114559       0.006968
                                                         0.222290       0.167895
                                                         0.683483       0.202218
                                                         2.941249       0.619473
                          1       5    4dxz              0.114559       0.006968
                                                         0.222290       0.167895
                                                         0.683483       0.202218
                                                         2.941249       0.619473
                          1       5    4dy2              0.114559       0.004023
                                                         0.222290       0.096934
                                                         0.683483       0.116751
                                                         2.941249       0.357653
                          1       5    4dyz              0.114559       0.006968
                                                         0.222290       0.167895
                                                         0.683483       0.202218
                                                         2.941249       0.619473
                          1       5    4dz2              0.114559       0.004023
                                                         0.222290       0.096934
                                                         0.683483       0.116751
                                                         2.941249       0.357653

                          2       1    1s               71.616837       2.707814
                                                        13.045096       2.618880
                                                         3.530512       0.816191

     RI Auxiliary Basis Set             RI_aug-SZV-MOLOPT-ae-SR_N_RI_045_s_p_d_f

       Number of orbital shell sets:                                          15
       Number of orbital shells:                                              15
       Number of primitive Cartesian functions:                               15
       Number of Cartesian basis functions:                                   53
       Number of spherical basis functions:                                   45
       Norm type:                                                              2

       Normalised Cartesian orbitals:

                        Set   Shell   Orbital            Exponent    Coefficient

                          1       1    1s                0.335626       0.314269

                          2       1    7px               0.430431       0.496958
                          2       1    7py               0.430431       0.496958
                          2       1    7pz               0.430431       0.496958

                          3       1   12dx2              0.522083       0.527781
                          3       1   12dxy              0.522083       0.914144
                          3       1   12dxz              0.522083       0.914144
                          3       1   12dy2              0.522083       0.527781
                          3       1   12dyz              0.522083       0.914144
                          3       1   12dz2              0.522083       0.527781

                          4       1    8px               0.557902       0.687287
                          4       1    8py               0.557902       0.687287
                          4       1    8pz               0.557902       0.687287

                          5       1   14fx3              0.588350       0.446308
                          5       1   14fx2y             0.588350       0.997974
                          5       1   14fx2z             0.588350       0.997974
                          5       1   14fxy2             0.588350       0.997974
                          5       1   14fxyz             0.588350       1.728542
                          5       1   14fxz2             0.588350       0.997974
                          5       1   14fy3              0.588350       0.446308
                          5       1   14fy2z             0.588350       0.997974
                          5       1   14fyz2             0.588350       0.997974
                          5       1   14fz3              0.588350       0.446308

                          6       1    2s                1.012193       0.719213

                          7       1    9px               1.595955       2.556913
                          7       1    9py               1.595955       2.556913
                          7       1    9pz               1.595955       2.556913

                          8       1   15fx3              2.519735      11.776133
                          8       1   15fx2y             2.519735      26.332235
                          8       1   15fx2z             2.519735      26.332235
                          8       1   15fxy2             2.519735      26.332235
                          8       1   15fxyz             2.519735      45.608768
                          8       1   15fxz2             2.519735      26.332235
                          8       1   15fy3              2.519735      11.776133
                          8       1   15fy2z             2.519735      26.332235
                          8       1   15fyz2             2.519735      26.332235
                          8       1   15fz3              2.519735      11.776133

                          9       1   13dx2              2.522804       8.312002
                          9       1   13dxy              2.522804      14.396810
                          9       1   13dxz              2.522804      14.396810
                          9       1   13dy2              2.522804       8.312002
                          9       1   13dyz              2.522804      14.396810
                          9       1   13dz2              2.522804       8.312002

                         10       1    3s                3.115568       1.671333

                         11       1   10px               5.069113      10.841891
                         11       1   10py               5.069113      10.841891
                         11       1   10pz               5.069113      10.841891

                         12       1    4s                9.232047       3.774710

                         13       1   11px              15.199704      42.779333
                         13       1   11py              15.199704      42.779333
                         13       1   11pz              15.199704      42.779333

                         14       1    5s               27.130488       8.472338

                         15       1    6s               79.597157      18.992549

       Atomic covalent radius [Angstrom]:                                  0.770

       Atomic van der Waals radius [Angstrom]:                             1.700

     The atoms of this atomic kind are PAW atoms (GAPW):
       Hard Gaussian function radius:                                      1.512
       Rho0 radius:                                                        1.512
       Maximum GTO radius used for PAW projector construction:            24.566

     GAPW Soft Basis Set                               aug-SZV-MOLOPT-ae-SR_soft

       Number of orbital shell sets:                                           2
       Number of orbital shells:                                               6
       Number of primitive Cartesian functions:                                5
       Number of Cartesian basis functions:                                   15
       Number of spherical basis functions:                                   14
       Norm type:                                                              2

       Normalised Cartesian orbitals:

                        Set   Shell   Orbital            Exponent    Coefficient

                          1       1    2s                0.114559       0.000000
                                                         0.222290       0.161536
                                                         0.683483       0.214036
                                                         2.941249      -0.160017

                          1       2    3s                0.114559       0.078076
                                                         0.222290       0.130402
                                                         0.683483      -0.084834
                                                         2.941249       0.041379

                          1       3    3px               0.114559       0.000000
                                                         0.222290       0.085276
                                                         0.683483       0.538304
                                                         2.941249       0.856045
                          1       3    3py               0.114559       0.000000
                                                         0.222290       0.085276
                                                         0.683483       0.538304
                                                         2.941249       0.856045
                          1       3    3pz               0.114559       0.000000
                                                         0.222290       0.085276
                                                         0.683483       0.538304
                                                         2.941249       0.856045

                          1       4    4px               0.114559       0.224492
                                                         0.222290      -0.546182
                                                         0.683483       0.918493
                                                         2.941249      -0.348342
                          1       4    4py               0.114559       0.224492
                                                         0.222290      -0.546182
                                                         0.683483       0.918493
                                                         2.941249      -0.348342
                          1       4    4pz               0.114559       0.224492
                                                         0.222290      -0.546182
                                                         0.683483       0.918493
                                                         2.941249      -0.348342

                          1       5    4dx2              0.114559       0.004023
                                                         0.222290       0.096934
                                                         0.683483       0.116751
                                                         2.941249       0.357653
                          1       5    4dxy              0.114559       0.006968
                                                         0.222290       0.167895
                                                         0.683483       0.202218
                                                         2.941249       0.619473
                          1       5    4dxz              0.114559       0.006968
                                                         0.222290       0.167895
                                                         0.683483       0.202218
                                                         2.941249       0.619473
                          1       5    4dy2              0.114559       0.004023
                                                         0.222290       0.096934
                                                         0.683483       0.116751
                                                         2.941249       0.357653
                          1       5    4dyz              0.114559       0.006968
                                                         0.222290       0.167895
                                                         0.683483       0.202218
                                                         2.941249       0.619473
                          1       5    4dz2              0.114559       0.004023
                                                         0.222290       0.096934
                                                         0.683483       0.116751
                                                         2.941249       0.357653

                          2       1    1s                3.530512       0.816191

     AE Potential information for                                            ALL

       Description:                                       All-electron potential
                                          Krack, Parrinello, PCCP 2, 2105 (2000)

       Gaussian exponent of the core charge distribution:               4.109048
       Electronic configuration (s p d ...):                           4   2   0


 MOLECULE KIND INFORMATION


 All atoms are their own molecule, skipping detailed information


 TOTAL NUMBERS AND MAXIMUM NUMBERS

  Total number of            - Atomic kinds:                                   4
                             - Atoms:                                         14
                             - Shell sets:                                    23
                             - Shells:                                        74
                             - Primitive Cartesian functions:                 83
                             - Cartesian basis functions:                    165
                             - Spherical basis functions:                    156

  Maximum angular momentum of the orbital basis functions:                     2


 MODULE QUICKSTEP: ATOMIC COORDINATES IN ANGSTROM

   Atom Kind Element         X             Y             Z       Z(eff)     Mass
      1    1 N     7     14.765552     15.373522     14.360226   7.0000  14.0067
      2    2 O     8     13.235750     16.403383     15.880697   8.0000  15.9994
      3    1 N     7     13.852050     14.875186     13.396843   7.0000  14.0067
      4    2 O     8     12.770125     15.424459     13.312144   8.0000  15.9994
      5    2 O     8     14.286986     13.950251     12.708867   8.0000  15.9994
      6    1 N     7     15.406604     15.793644     16.450764   7.0000  14.0067
      7    3 H     1     15.425771     16.358964     17.291133   1.0000   1.0079
      8    4 C     6     14.315681     15.932997     15.619322   6.0000  12.0107
      9    4 C     6     16.034612     14.666587     14.523172   6.0000  12.0107
     10    3 H     1     16.660510     14.768403     13.631266   1.0000   1.0079
     11    3 H     1     15.862846     13.596617     14.714169   1.0000   1.0079
     12    4 C     6     16.615443     15.385311     15.751544   6.0000  12.0107
     13    3 H     1     17.229410     16.250238     15.450010   1.0000   1.0079
     14    3 H     1     17.229875     14.711979     16.360761   1.0000   1.0079



 SCF PARAMETERS         Density guess:                                    ATOMIC
                        --------------------------------------------------------
                        max_scf:                                             500
                        max_scf_history:                                       0
                        max_diis:                                              4
                        --------------------------------------------------------
                        eps_scf:                                        1.00E-06
                        eps_scf_history:                                0.00E+00
                        eps_diis:                                       1.00E-01
                        eps_eigval:                                     1.00E-05
                        --------------------------------------------------------
                        level_shift [a.u.]:                             0.000000
                        added MOs                                       122    0
                        --------------------------------------------------------
                        Mixing method:                            BROYDEN_MIXING
                                                charge density mixing in g-space
                        --------------------------------------------------------
                        No outer SCF

 PW_GRID| Information for grid number                                          1
 PW_GRID| Grid distributed over                                   192 processors
 PW_GRID| Real space group dimensions                                   192    1
 PW_GRID| the grid is blocked:                                                NO
 PW_GRID| Cutoff [a.u.]                                                    250.0
 PW_GRID| spherical cutoff:                                                   NO
 PW_GRID|   Bounds   1           -202     202                Points:         405
 PW_GRID|   Bounds   2           -202     202                Points:         405
 PW_GRID|   Bounds   3           -202     202                Points:         405
 PW_GRID| Volume element (a.u.^3)  0.2743E-02     Volume (a.u.^3)    182205.0337
 PW_GRID| Grid span                                                    FULLSPACE
 PW_GRID|   Distribution                         Average         Max         Min
 PW_GRID|   G-Vectors                           345990.2      346275      345870
 PW_GRID|   G-Rays                                 854.3         855         854
 PW_GRID|   Real Space Points                   345990.2      492075      328050

 PW_GRID| Information for grid number                                          2
 PW_GRID| Number of the reference grid                                         1
 PW_GRID| Grid distributed over                                   192 processors
 PW_GRID| Real space group dimensions                                   192    1
 PW_GRID| the grid is blocked:                                                NO
 PW_GRID| Cutoff [a.u.]                                                     83.3
 PW_GRID| spherical cutoff:                                                   NO
 PW_GRID|   Bounds   1           -120     119                Points:         240
 PW_GRID|   Bounds   2           -120     119                Points:         240
 PW_GRID|   Bounds   3           -120     119                Points:         240
 PW_GRID| Volume element (a.u.^3)  0.1318E-01     Volume (a.u.^3)    182205.0337
 PW_GRID| Grid span                                                    FULLSPACE
 PW_GRID|   Distribution                         Average         Max         Min
 PW_GRID|   G-Vectors                            72000.0       72240       71760
 PW_GRID|   G-Rays                                 300.0         301         299
 PW_GRID|   Real Space Points                    72000.0      115200       57600

 PW_GRID| Information for grid number                                          3
 PW_GRID| Number of the reference grid                                         1
 PW_GRID| Grid distributed over                                   192 processors
 PW_GRID| Real space group dimensions                                    12   16
 PW_GRID| the grid is blocked:                                                NO
 PW_GRID| Cutoff [a.u.]                                                     27.8
 PW_GRID| spherical cutoff:                                                   NO
 PW_GRID|   Bounds   1            -67      67                Points:         135
 PW_GRID|   Bounds   2            -67      67                Points:         135
 PW_GRID|   Bounds   3            -67      67                Points:         135
 PW_GRID| Volume element (a.u.^3)  0.7406E-01     Volume (a.u.^3)    182205.0337
 PW_GRID| Grid span                                                    FULLSPACE
 PW_GRID|   Distribution                         Average         Max         Min
 PW_GRID|   G-Vectors                            12814.5       12960       12690
 PW_GRID|   G-Rays                                  94.9          96          94
 PW_GRID|   Real Space Points                    12814.5       14580       11880

 PW_GRID| Information for grid number                                          4
 PW_GRID| Number of the reference grid                                         1
 PW_GRID| Grid distributed over                                   192 processors
 PW_GRID| Real space group dimensions                                    12   16
 PW_GRID| the grid is blocked:                                                NO
 PW_GRID| Cutoff [a.u.]                                                      9.3
 PW_GRID| spherical cutoff:                                                   NO
 PW_GRID|   Bounds   1            -40      39                Points:          80
 PW_GRID|   Bounds   2            -40      39                Points:          80
 PW_GRID|   Bounds   3            -40      39                Points:          80
 PW_GRID| Volume element (a.u.^3)  0.3559         Volume (a.u.^3)    182205.0337
 PW_GRID| Grid span                                                    FULLSPACE
 PW_GRID|   Distribution                         Average         Max         Min
 PW_GRID|   G-Vectors                             2666.7        2800        2560
 PW_GRID|   G-Rays                                  33.3          35          32
 PW_GRID|   Real Space Points                     2666.7        2800        2400

 POISSON| Solver                                                         WAVELET
 POISSON| Wavelet| Scaling function                                           40
 POISSON| Periodicity                                                       NONE

 RS_GRID| Information for grid number                                          1
 RS_GRID|   Bounds   1           -202     202                Points:         405
 RS_GRID|   Bounds   2           -202     202                Points:         405
 RS_GRID|   Bounds   3           -202     202                Points:         405
 RS_GRID| Real space distribution over                                  4 groups
 RS_GRID| Real space distribution along direction                              1
 RS_GRID| Border size                                                         34
 RS_GRID| Real space distribution over                                  6 groups
 RS_GRID| Real space distribution along direction                              2
 RS_GRID| Border size                                                         34
 RS_GRID| Real space distribution over                                  8 groups
 RS_GRID| Real space distribution along direction                              3
 RS_GRID| Border size                                                         34
 RS_GRID|   Distribution                         Average         Max         Min
 RS_GRID|   Planes                                 169.2         170         169
 RS_GRID|   Distribution                         Average         Max         Min
 RS_GRID|   Planes                                 135.5         136         135
 RS_GRID|   Distribution                         Average         Max         Min
 RS_GRID|   Planes                                 118.6         119         118

 RS_GRID| Information for grid number                                          2
 RS_GRID|   Bounds   1           -120     119                Points:         240
 RS_GRID|   Bounds   2           -120     119                Points:         240
 RS_GRID|   Bounds   3           -120     119                Points:         240
 RS_GRID| Real space distribution over                                  4 groups
 RS_GRID| Real space distribution along direction                              1
 RS_GRID| Border size                                                         37
 RS_GRID| Real space distribution over                                  6 groups
 RS_GRID| Real space distribution along direction                              2
 RS_GRID| Border size                                                         37
 RS_GRID| Real space distribution over                                  8 groups
 RS_GRID| Real space distribution along direction                              3
 RS_GRID| Border size                                                         37
 RS_GRID|   Distribution                         Average         Max         Min
 RS_GRID|   Planes                                 134.0         134         134
 RS_GRID|   Distribution                         Average         Max         Min
 RS_GRID|   Planes                                 114.0         114         114
 RS_GRID|   Distribution                         Average         Max         Min
 RS_GRID|   Planes                                 104.0         104         104

 RS_GRID| Information for grid number                                          3
 RS_GRID|   Bounds   1            -67      67                Points:         135
 RS_GRID|   Bounds   2            -67      67                Points:         135
 RS_GRID|   Bounds   3            -67      67                Points:         135
 RS_GRID| Real space fully replicated
[...]
 https://doi.org/10.1007/s002140050523

 J. P. Perdew, K. Burke, M. Ernzerhof.
 Phys. Rev. Lett. 77, 3865-3868 (1996).
 Generalized gradient approximation made simple.
 https://doi.org/10.1103/PhysRevLett.77.3865


 -------------------------------------------------------------------------------
 -                                                                             -
 -                                T I M I N G                                  -
 -                                                                             -
 -------------------------------------------------------------------------------
 SUBROUTINE                       CALLS  ASD         SELF TIME        TOTAL TIME
                                MAXIMUM       AVERAGE  MAXIMUM  AVERAGE  MAXIMUM
 CP2K                                 1  1.0    0.038    0.068  343.413  343.418
 qs_energies                          1  2.0    0.003    0.009  343.009  343.012
 qs_energies_properties               1  3.0    0.000    0.000  245.694  245.699
 tddfpt                               1  4.0    0.000    0.000  245.694  245.699
 tddfpt_energies                      1  5.0    0.002    0.011  245.661  245.663
 tddfpt_davidson_solver               1  6.0    0.001    0.001  244.412  244.413
 tddfpt_compute_Aop_evects            9  7.0    0.000    0.000  242.684  242.686
 fhxc_kernel                          9  8.0    0.010    0.018  214.411  214.413
 fft_wrap_pw1pw2                   5001 11.1    0.099    0.128  130.505  138.314
 fft_wrap_pw1pw2_250               3519 12.2    2.811    3.688  123.273  135.549
 fft3d_ps                          5001 13.1   17.583   24.494  119.314  126.179
 mp_alltoall_z22v                  5001 15.1   96.159  102.085   96.159  102.085
 scf_env_do_scf                       1  3.0    0.001    0.002   96.128   96.140
 scf_env_do_scf_inner_loop           66  4.0    0.002    0.006   96.127   96.139
 tddfpt_apply_coulomb               180  9.0    0.003    0.004   69.070   71.459
 pw_poisson_solve                   246  9.5    1.102    1.519   68.808   71.216
 qs_rho_update_rho_low              248  7.9    0.003    0.003   70.811   70.822
 calculate_rho_elec                 248  8.9    0.325    0.461   70.059   70.064
 qs_ks_update_qs_env                 66  5.0    0.000    0.001   68.614   68.627
 rebuild_ks_matrix                   66  6.0    0.000    0.000   68.608   68.621
 qs_ks_build_kohn_sham_matrix        66  7.0    0.011    0.014   68.608   68.621
 yz_to_x                           1975 14.5    1.734    1.963   49.371   54.415
 x_to_yz                           2038 13.8    2.210    3.768   50.597   53.422
 xc_pw_derive                      1479 11.0    0.012    0.014   50.666   52.943
 tddfpt_apply_xc_analytic           180  9.0    0.287    0.421   45.125   46.843
 integrate_v_rspace                 246  9.0    0.007    0.009   43.210   44.371
 density_rs2pw                      248  9.9    0.010    0.011   41.563   43.817
 potential_pw2rs                    246 10.0    0.025    0.032   42.607   42.848
 transfer_pw2rs                    1231 10.9    0.023    0.032   38.757   39.540
 ps_wavelet_solve                   246 10.5   14.801   20.457   35.755   39.015
 xc_pw_divergence                   246 10.7    0.005    0.007   33.415   34.467
 integrate_four_center              426  9.8   13.456   29.904   31.855   31.945
 mp_waitany                       81124 12.8   27.377   31.747   27.377   31.747
 mp_sync                           2254 11.5   16.608   28.763   16.608   28.763
 tddfpt_apply_hfx                     9  8.0    0.002    0.002   27.832   27.832
 grid_collocate_task_list           248  9.9   25.821   27.531   25.821   27.531
 xc_calc_2nd_deriv_analytical      1260 10.1    1.286    1.599   26.283   26.937
 mp_sum_d                          4814  7.7    9.538   26.157    9.538   26.157
 tddft_hfx_matrix                   360  9.0    0.004    0.006   25.858   25.912
 transfer_rs2pw                    1241 10.9    0.036    0.049   25.105   25.854
 transfer_pw2rs_250                 493 11.7    3.976    4.269   21.893   23.416
 mp_alltoall_d54                    246 11.5   10.489   22.878   10.489   22.878
 prepare_gapw_den                   247  8.7    0.003    0.004   20.764   22.769
 put_rho0_on_grid                   247  9.7    0.343    0.495   19.539   21.547
 qs_vxc_create                       66  8.0    0.001    0.004   18.811   18.811
 xc_vxc_pw_create                    66  9.0    0.140    0.201   18.809   18.810
 transfer_rs2pw_250                 497 11.8    4.417    4.787   15.263   16.266
 fft_wrap_pw1pw2_90                 494 12.0    0.097    0.174    5.887   15.889
 integrate_vhg0_rspace              246  9.5    0.104    0.165   14.331   14.649
 mp_alltoall_d45                    247 11.5   10.819   13.798   10.819   13.798
 mp_isend_dm3                      9892 12.8    8.772   13.723    8.772   13.723
 transfer_pw2rs_90                  246 12.0    0.689    0.857    9.245   12.525
 mp_waitall_1                    487004 13.3    9.638   12.213    9.638   12.213
 mp_alltoall_d11v                 15836 11.6    8.122   11.027    8.122   11.027
 sum_up_and_integrate                66  8.0    0.002    0.013   10.407   10.709
 xc_rho_set_and_dset_create          67 10.0    0.172    0.234    8.823    9.867
 transfer_pw2rs_30                  246 12.0    1.064    1.224    6.478    8.924
 cp2k_distribution_to_z_slices      246 10.5    1.016    1.193    6.998    7.915
 Vh_1c_gg_integrals                 246  9.5    0.018    0.186    2.226    7.772
 pw_integral_ab_c1d_c1d_gs          246 10.5    0.674    0.804    2.608    6.058
 hfx_ks_matrix                       66  8.0    0.002    0.003    6.005    6.055
 gspace_mixing                       65  5.0    0.085    0.120    6.050    6.052
 transfer_rs2pw_90                  248 11.9    0.934    1.055    5.253    5.579
 mp_sum_dm                         6777 10.1    3.506    4.319    3.506    4.319
 rs_grid_zero                      1234 11.9    3.875    4.139    3.875    4.139
 pw_derive                         2217 11.8    3.701    4.033    3.701    4.033
 transfer_rs2pw_30                  248 11.9    1.384    1.584    3.473    3.703
 pw_copy                           3335 11.0    3.117    3.562    3.117    3.562
 pw_gather_p                       2471 13.4    2.684    3.304    2.684    3.304
 mp_max_i                           717  5.1    1.238    3.123    1.238    3.123
 mp_sendrecv_dv                   94736 12.9    2.764    3.001    2.764    3.001
 pw_scatter_p                      2530 12.8    2.667    2.980    2.667    2.980
 broyden_mixing                      65  6.0    2.631    2.667    2.722    2.744
 cp_dbcsr_sm_fm_multiply           1126  8.6    0.013    0.016    2.695    2.738
 pw_copy_to_array                  2471 13.4    1.807    2.602    1.807    2.602
 calculate_xc_2nd_deriv_atom        180  9.0    0.057    0.782    0.112    2.369
 pw_poisson_set                     247 10.4    0.004    0.005    2.254    2.340
 parallel_gemm_fm                  1654  8.3    0.001    0.002    2.073    2.146
 parallel_gemm_fm_cosma            1654  9.3    2.072    2.144    2.072    2.144
 dbcsr_multiply_generic            1552 10.3    0.040    0.057    1.812    1.845
 pw_axpy                           2714 10.8    1.452    1.713    1.452    1.713
 dbcsr_complete_redistribute       3735 10.5    0.089    0.137    1.535    1.695
 xc_functional_eval                1543 10.9    0.001    0.003    0.780    1.659
 gaVxcgb_GC                         738  9.7    0.026    1.658    0.026    1.658
 pbe_lda_eval                      1543 11.9    0.779    1.656    0.779    1.656
 pw_zero                           2742 10.6    1.349    1.597    1.349    1.597
 update_ks_atom                     246  8.7    0.028    0.046    1.075    1.546
 mp_sum_dv                        21793  8.9    1.394    1.525    1.394    1.525
 mp_bcast_dm                       4428  9.7    1.047    1.521    1.047    1.521
 rs_gather_matrices                 246 10.0    0.004    0.018    0.489    1.519
 grid_integrate_task_list           246 10.0    0.105    1.503    0.105    1.503
 pw_copy_from_array                2530 12.8    1.010    1.355    1.010    1.355
 transfer_pw2rs_10                  246 12.0    0.283    0.323    1.118    1.343
 cp_dbcsr_sm_fm_multiply_core      1126  9.6    0.002    0.002    1.278    1.309
 transfer_rs2pw_10                  248 11.9    0.406    0.533    1.081    1.209
 copy_fm_to_dbcsr                  2519  9.6    0.006    0.007    1.021    1.182
 fft_wrap_pw1pw2_30                 494 12.0    0.013    0.015    0.897    1.166
 calculate_rho_atom                 741  9.7    0.319    1.133    0.319    1.133
 mp_alltoall_i22                   4950 11.4    1.012    1.114    1.012    1.114
 qs_scf_new_mos                      66  5.0    0.002    0.007    1.085    1.094
 mp_alltoall_z11v                   988 15.0    0.791    1.017    0.791    1.017
 copy_dbcsr_to_fm                  1214  9.3    0.009    0.010    0.797    0.841
 mp_irecv_dm3                      9892 12.8    0.262    0.833    0.262    0.833
 mp_rank_compare                   5001 14.1    0.716    0.775    0.716    0.775
 cp_dbcsr_plus_fm_fm_t              246  8.5    0.002    0.002    0.756    0.771
 eigensolver_symm                    66  6.0    0.006    0.011    0.741    0.765
 pw_poisson_rebuild                 246 10.5    0.000    0.000    0.731    0.760
 ps_wavelet_create                    1 10.0    0.000    0.000    0.731    0.760
 RS_z_slice_distribution              1 11.0    0.191    0.221    0.731    0.760
 calculate_rho_atom_coeff           248  8.9    0.043    0.094    0.749    0.757
 prepare_dr1dr                     1260 11.1    0.553    0.745    0.553    0.745
 multiply_cannon                   1552 11.3    0.098    0.108    0.706    0.745
 calculate_vxc_atom                  66  8.0    0.024    0.157    0.701    0.702
 tddfpt_orthonormalize_psi1_psi      10  6.9    0.010    0.012    0.695    0.696
 qs_energies_init_hamiltonians        1  3.0    0.002    0.008    0.693    0.694
 mp_sum_l                          5940 10.6    0.563    0.650    0.563    0.650
 cp_fm_diag_elpa                    117  7.2    0.000    0.000    0.624    0.632
 integrate_four_center_main         426 10.8    0.038    0.060    0.476    0.619
 offload_free_buffer                254 10.2    0.488    0.609    0.488    0.609
 cp_fm_diag_elpa_base               117  8.2    0.592    0.599    0.603    0.605
 tddfpt_compute_residual_vects        8  7.0    0.000    0.000    0.582    0.583
 integrate_four_center_bin        32553 11.8    0.437    0.575    0.437    0.575
 yz_to_xz                           492 14.0    0.034    0.046    0.410    0.567
 tddfpt_print_nto_analysis            1  6.0    0.002    0.004    0.565    0.565
 build_core_hamiltonian_matrix        1  4.0    0.001    0.004    0.561    0.563
 overlap_condnum                      1  5.0    0.002    0.008    0.472    0.562
 make_m2s                          3104 11.3    0.027    0.029    0.530    0.557
 calc_screening_functions             1 10.0    0.255    0.305    0.475    0.527
 xz_to_yz                           496 13.9    0.026    0.043    0.441    0.527
 multiply_cannon_loop              1552 12.3    0.097    0.103    0.467    0.514
 make_images                       3104 12.3    0.081    0.093    0.463    0.492
 fft_wrap_pw1pw2_10                 494 12.0    0.004    0.005    0.349    0.471
 integrate_four_center_getP         426 10.8    0.064    0.072    0.442    0.461
 tddfpt_apply_energy_diff             9  8.0    0.000    0.000    0.441    0.448
 tddfpt_construct_ground_state_       1  6.0    0.000    0.000    0.398    0.407
 init_scf_run                         1  3.0    0.002    0.007    0.403    0.403
 scf_env_initial_rho_setup            1  4.0    0.001    0.004    0.373    0.373
 cp_fm_trace_a1b1t1_aa            16500  8.0    0.028    0.038    0.358    0.366
 powell_optimize                 241052 11.0    0.351    0.366    0.351    0.366
 mp_isend_dv                     145728 13.6    0.165    0.363    0.165    0.363
 xc_2nd_deriv_of_r                 1080 10.0    0.001    0.045    0.005    0.346
 mp_isendrecv_dv                 256704 12.3    0.218    0.338    0.218    0.338
 integrate_four_center_dist_KS      426 10.8    0.064    0.073    0.305    0.311
 tddfpt_orthogonalize_psi1_psi0      10  6.9    0.000    0.000    0.286    0.300
 scale_and_distribute               492 11.5    0.186    0.298    0.186    0.298
 make_images_sizes                 3104 13.3    0.002    0.002    0.272    0.286
 mp_alltoall_i44                   3104 14.3    0.269    0.284    0.269    0.284
 dbcsr_gershgorin_norm                1  6.0    0.001    0.006    0.192    0.282
 build_overlap_matrix_low             2  5.5    0.084    0.273    0.087    0.278
 cp_fm_geeig                         20  7.0    0.001    0.001    0.261    0.262
 calc_pair_dist_radii                 1 10.0    0.120    0.123    0.251    0.262
 calculate_dm_sparse                 66  6.0    0.000    0.001    0.245    0.254
 dbcsr_desymmetrize_deep           1215 10.3    0.017    0.021    0.199    0.235
 mp_alltoall_i11v                 12420 11.5    0.078    0.223    0.078    0.223
 arnoldi_conjugate_gradient           5  6.0    0.006    0.009    0.204    0.204
 tddfpt_is_nonorthogonal_psi1_p       8  7.0    0.000    0.000    0.194    0.194
 multiply_cannon_metrocomm3       37248 13.3    0.052    0.058    0.130    0.194
 mp_cart_sub                       2432 11.3    0.191    0.194    0.191    0.194
 create_kernel_env                    1  6.0    0.000    0.000    0.149    0.170
 xc_prep_2nd_deriv                    1  7.0    0.000    0.000    0.149    0.170
 rs_grid_create                     252 10.4    0.001    0.002    0.021    0.163
 offload_create_buffer              254 11.3    0.020    0.161    0.020    0.161
 mp_cart_create                    1957 10.7    0.149    0.158    0.151    0.161
 qs_init_subsys                       1  2.0    0.020    0.058    0.159    0.160
 dbcsr_finalize                    9751 11.4    0.019    0.027    0.114    0.159
 create_qs_kind_set                   1  2.0    0.000    0.001    0.139    0.158
 read_qs_kind                         4  3.0    0.043    0.067    0.139    0.158
 qs_env_setup                         1  3.0    0.001    0.002    0.135    0.157
 qs_env_rebuild_pw_env                2  3.5    0.000    0.000    0.133    0.156
 pw_env_rebuild                       1  5.0    0.004    0.010    0.133    0.156
 cube_transpose_2                   496 13.9    0.009    0.010    0.086    0.155
 pw_scale                           624  9.5    0.103    0.153    0.103    0.153
 pw_grid_setup                        4  6.0    0.001    0.001    0.117    0.142
 pw_grid_setup_internal               4  7.0    0.001    0.002    0.117    0.142
 mp_irecv_dv                     144242 13.6    0.081    0.139    0.081    0.139
 write_mo_set_to_restart             66  5.0    0.001    0.089    0.063    0.129
 dbcsr_sym_matrix_vector_mult      1575  7.0    0.011    0.013    0.111    0.127
 qs_env_update_s_mstruct              1  4.0    0.002    0.007    0.123    0.126
 multiply_cannon_metrocomm4       35696 13.3    0.053    0.060    0.094    0.121
 parser_read_line                 16136  4.0    0.003    0.003    0.095    0.119
 cube_transpose_1                   492 14.0    0.008    0.017    0.067    0.118
 parser_read_line_low                29  5.0    0.002    0.020    0.093    0.116
 dbcsr_merge_all                   7963 12.4    0.052    0.093    0.075    0.115
 calculate_rho_core                   1  5.0    0.004    0.009    0.108    0.114
 broadcast_input_information         29  6.0    0.009    0.010    0.091    0.114
 integrate_four_center_load         426 10.8    0.001    0.003    0.072    0.114
 hfx_load_balance                     1 11.0    0.001    0.008    0.072    0.113
 multiply_cannon_metrocomm2       32592 13.3    0.048    0.056    0.079    0.109
 mp_allgather_i34                  1552 12.3    0.094    0.108    0.094    0.108
 dbcsr_create_new                 34728 11.5    0.063    0.076    0.084    0.098
 rs_scatter_matrices                248  9.9    0.002    0.005    0.006    0.098
 hfx_load_balance_range               1 12.0    0.000    0.010    0.052    0.094
 calculate_rho0_atom                988  9.7    0.089    0.094    0.089    0.094
 vxc_of_r_new                       396  9.0    0.000    0.008    0.001    0.093
 scf_post_calculation_gpw             1  3.0    0.000    0.000    0.085    0.087
 mp_bcast_i_src                     116  7.0    0.061    0.086    0.061    0.086
 write_available_results              1  4.0    0.001    0.006    0.084    0.084
 write_mo_free_results                1  5.0    0.002    0.004    0.083    0.084
 cp_fm_write_unformatted             24  7.0    0.079    0.080    0.079    0.080
 make_images_data                  3104 13.3    0.019    0.025    0.047    0.078
 multiply_cannon_metrocomm1       37248 13.3    0.020    0.022    0.042    0.075
 cp_fm_cholesky_decompose            20  8.0    0.062    0.063    0.062    0.063
 write_mo_set_low                     4  6.0    0.000    0.000    0.062    0.062
 cp_fm_triangular_invert             20  8.0    0.061    0.061    0.061    0.061
 dbcsr_add_d                       2411  7.1    0.001    0.002    0.010    0.060
 cp_fm_symm                          66  7.0    0.056    0.060    0.056    0.060
 dbcsr_add_anytype                 2411  8.1    0.002    0.013    0.009    0.059
 multiply_cannon_multrec          37248 13.3    0.021    0.055    0.025    0.059
 mp_bcast_b_src                     183  8.1    0.050    0.055    0.050    0.055
 cp_fm_power                          1  6.0    0.000    0.000    0.054    0.054
 dbcsr_col_vec_to_rep_row          1575  8.0    0.005    0.006    0.037    0.054
 copy_fm_to_dbcsr_bc               2519 10.6    0.013    0.022    0.045    0.053
 hybrid_alltoall_any               4319 13.5    0.019    0.023    0.031    0.051
 pw_grid_sort                         4  8.0    0.035    0.036    0.048    0.051
 tddfpt_compute_ritz_vects            9  7.0    0.004    0.004    0.050    0.051
 mp_max_d                           228  8.4    0.042    0.049    0.042    0.049
 dbcsr_rep_row_to_rep_col_vec      1575  8.0    0.004    0.004    0.023    0.048
 external_control                    66  5.0    0.000    0.045    0.048    0.048
 dbcsr_iterator_start             45060 10.9    0.029    0.034    0.037    0.044
 mp_sum_iv                          466  7.1    0.036    0.043    0.036    0.043
 mp_isend_iv                      77174 14.3    0.024    0.039    0.024    0.039
 mp_cart_rank                    189344 11.0    0.031    0.037    0.031    0.037
 dbcsr_copy                       10122  8.8    0.014    0.016    0.033    0.037
 dbcsr_special_finalize            6208 13.3    0.009    0.010    0.030    0.036
 qs_create_task_list                  1  5.0    0.000    0.003    0.012    0.035
 dbcsr_work_create                15386 12.4    0.018    0.023    0.027    0.035
 calculate_hirshfeld_normalizat       1  6.0    0.001    0.003    0.033    0.035
 -------------------------------------------------------------------------------

 The number of warnings for this run is : 1
 
 -------------------------------------------------------------------------------
  **** **** ******  **  PROGRAM ENDED AT                 2025-03-27 10:31:33.497
 ***** ** ***  *** **   PROGRAM RAN ON                     n2cn0708.ab2021.local
 **    ****   ******    PROGRAM RAN BY                                  metdyn02
 ***** **    ** ** **   PROGRAM PROCESS ID                                660370
  **** **  *******  **  PROGRAM STOPPED IN /scratch/hpc-prf-metdyn/metdyn02_Remi
                                           /10_MOL/05_MOL/aUKBqsEOTmq69kFe5R_nOg
                                           /5k_set_final_qzvp/LUHPAF/SZVSR/TDDFT
                                           /1e-4
