SIRIUS 7.5.2, git hash: https://api.github.com/repos/electronic-structure/SIRIUS/git/ref/tags/v7.5.2
 DBCSR| CPU Multiplication driver                                           XSMM (U)
 DBCSR| Multrec recursion limit                                              512 (U)
 DBCSR| Multiplication stack size                                           1000 (D)
 DBCSR| Maximum elements for images                                    UNLIMITED (U)
 DBCSR| Multiplicative factor virtual images                                   1 (U)
 DBCSR| Use multiplication densification                                       T (D)
 DBCSR| Multiplication size stacks                                             3 (U)
 DBCSR| Use memory pool for CPU allocation                                     F (U)
 DBCSR| Number of 3D layers                                               SINGLE (U)
 DBCSR| Use MPI memory allocation                                              F (U)
 DBCSR| Use RMA algorithm                                                      F (U)
 DBCSR| Use Communication thread                                               T (U)
 DBCSR| Communication thread load                                             75 (D)
 DBCSR| MPI: My process id                                                     0
 DBCSR| MPI: Number of processes                                             192
 DBCSR| OMP: Current number of threads                                         4
 DBCSR| OMP: Max number of threads                                             4
 DBCSR| Split modifier for TAS multiplication algorithm                  1.0E+00 (U)


  **** **** ******  **  PROGRAM STARTED AT               2025-03-22 18:09:15.761
 ***** ** ***  *** **   PROGRAM STARTED ON                              n2cn1011
 **    ****   ******    PROGRAM STARTED BY                              metdyn02
 ***** **    ** ** **   PROGRAM PROCESS ID                               3127529
  **** **  *******  **  PROGRAM STARTED IN /scratch/hpc-prf-metdyn/metdyn02_Remi
                                           /10_MOL/05_MOL/aUKBqsEOTmq69kFe5R_nOg
                                           /5k_set_final_qzvp/SULAMD03/DZVP/TDDF
                                           T/RILIM

 CP2K| version string:                 CP2K version 2025.1 (Development Version)
 CP2K| source code revision number:                                  git:f0c7327
 CP2K| cp2kflags: omp libint fftw3 libxc libgrpp elpa parallel scalapack mpi_f08
 CP2K|             cosma xsmm plumed2 spglib sirius libvori libbqb libvdwxc hdf5
 CP2K| is freely available from                            https://www.cp2k.org/
 CP2K| Program compiled at                          Wed Mar 12 18:25:30 CET 2025
 CP2K| Program compiled on                                              n2login1
 CP2K| Program compiled for                                                local
 CP2K| Data directory path    /opt/software/pc2/EB-SW/software/CP2K/2024.1-foss-
 CP2K| Input file name                                                    GW.inp

 GLOBAL| Force Environment number                                              1
 GLOBAL| Basis set file name            /scratch/hpc-prf-metdyn/metdyn02_Remi/BA
 GLOBAL| Potential file name            /pc2/groups/hpc-prf-metdyn/metdyn02_Remi
 GLOBAL| MM Potential file name                                     MM_POTENTIAL
 GLOBAL| Coordinate file name                                      __STD_INPUT__
 GLOBAL| Method name                                                        CP2K
 GLOBAL| Project name                                                       MoS2
 GLOBAL| Run type                                                         ENERGY
 GLOBAL| FFT library                                                       FFTW3
 GLOBAL| Diagonalization library                                            ELPA
 GLOBAL| DGEMM library                                                      BLAS
 GLOBAL| Minimum number of eigenvectors for ELPA usage                        16
 GLOBAL| Orthonormality check for eigenvectors                          DISABLED
 GLOBAL| Matrix multiplication library                                     COSMA
 GLOBAL| All-to-all communication in single precision                          F
 GLOBAL| FFTs using library dependent lengths                                  F
 GLOBAL| Grid backend                                                       AUTO
 GLOBAL| Global print level                                               MEDIUM
 GLOBAL| MPI I/O enabled                                                       T
 GLOBAL| Total number of message passing processes                           192
 GLOBAL| Number of threads for this process                                    4
 GLOBAL| This output is from process                                           0
 GLOBAL| OpenMP stack size per thread (OMP_STACKSIZE)                    default
 GLOBAL| CPU model name                          AMD EPYC 7763 64-Core Processor
 GLOBAL| CPUID                                                              1002

 MEMORY| system memory details [Kb]
 MEMORY|                        rank 0           min           max       average
 MEMORY| MemTotal            263899260     263899260     263899264     263899262
 MEMORY| MemFree             241575076     240482072     245929264     242773386
 MEMORY| Buffers                197540         22132        226748        169265
 MEMORY| Cached                7364388       5799668       9278324       7318631
 MEMORY| Slab                  2840088       1722352       2840088       2298925
 MEMORY| SReclaimable           576628        257312        576628        420162
 MEMORY| MemLikelyFree       249713632     249713632     252008376     250681446


 *** Fundamental physical constants (SI units) ***

 *** Literature: B. J. Mohr and B. N. Taylor,
 ***             CODATA recommended values of the fundamental physical
 ***             constants: 2006, Web Version 5.1
 ***             http://physics.nist.gov/constants

 Speed of light in vacuum [m/s]                             2.99792458000000E+08
 Magnetic constant or permeability of vacuum [N/A**2]       1.25663706143592E-06
 Electric constant or permittivity of vacuum [F/m]          8.85418781762039E-12
 Planck constant (h) [J*s]                                  6.62606896000000E-34
 Planck constant (h-bar) [J*s]                              1.05457162825177E-34
 Elementary charge [C]                                      1.60217648700000E-19
 Electron mass [kg]                                         9.10938215000000E-31
 Electron g factor [ ]                                     -2.00231930436220E+00
 Proton mass [kg]                                           1.67262163700000E-27
 Fine-structure constant                                    7.29735253760000E-03
 Rydberg constant [1/m]                                     1.09737315685270E+07
 Avogadro constant [1/mol]                                  6.02214179000000E+23
 Boltzmann constant [J/K]                                   1.38065040000000E-23
 Atomic mass unit [kg]                                      1.66053878200000E-27
 Bohr radius [m]                                            5.29177208590000E-11

 *** Conversion factors ***

 [u] -> [a.u.]                                              1.82288848426455E+03
 [Angstrom] -> [Bohr] = [a.u.]                              1.88972613288564E+00
 [a.u.] = [Bohr] -> [Angstrom]                              5.29177208590000E-01
 [a.u.] -> [s]                                              2.41888432650478E-17
 [a.u.] -> [fs]                                             2.41888432650478E-02
 [a.u.] -> [J]                                              4.35974393937059E-18
 [a.u.] -> [N]                                              8.23872205491840E-08
 [a.u.] -> [K]                                              3.15774647902944E+05
 [a.u.] -> [kJ/mol]                                         2.62549961709828E+03
 [a.u.] -> [kcal/mol]                                       6.27509468713739E+02
 [a.u.] -> [Pa]                                             2.94210107994716E+13
 [a.u.] -> [bar]                                            2.94210107994716E+08
 [a.u.] -> [atm]                                            2.90362800883016E+08
 [a.u.] -> [eV]                                             2.72113838565563E+01
 [a.u.] -> [Hz]                                             6.57968392072181E+15
 [a.u.] -> [1/cm] (wave numbers)                            2.19474631370540E+05
 [a.u./Bohr**2] -> [1/cm]                                   5.14048714338585E+03
 

 CELL_TOP| Volume [angstrom^3]:                                     27000.000000
 CELL_TOP| Vector a [angstrom    30.000     0.000     0.000   |a| =    30.000000
 CELL_TOP| Vector b [angstrom     0.000    30.000     0.000   |b| =    30.000000
 CELL_TOP| Vector c [angstrom     0.000     0.000    30.000   |c| =    30.000000
 CELL_TOP| Angle (b,c), alpha [degree]:                                90.000000
 CELL_TOP| Angle (a,c), beta  [degree]:                                90.000000
 CELL_TOP| Angle (a,b), gamma [degree]:                                90.000000
 CELL_TOP| Numerically orthorhombic:                                         YES
 CELL_TOP| Periodicity                                                      NONE

 GENERATE|  Preliminary Number of Bonds generated:                             0
 GENERATE|  Achieved consistency in connectivity generation.

 CELL| Volume [angstrom^3]:                                         27000.000000
 CELL| Vector a [angstrom]:      30.000     0.000     0.000   |a| =    30.000000
 CELL| Vector b [angstrom]:       0.000    30.000     0.000   |b| =    30.000000
 CELL| Vector c [angstrom]:       0.000     0.000    30.000   |c| =    30.000000
 CELL| Angle (b,c), alpha [degree]:                                    90.000000
 CELL| Angle (a,c), beta  [degree]:                                    90.000000
 CELL| Angle (a,b), gamma [degree]:                                    90.000000
 CELL| Numerically orthorhombic:                                             YES
 CELL| Periodicity                                                          NONE

 CELL_REF| Volume [angstrom^3]:                                     27000.000000
 CELL_REF| Vector a [angstrom    30.000     0.000     0.000   |a| =    30.000000
 CELL_REF| Vector b [angstrom     0.000    30.000     0.000   |b| =    30.000000
 CELL_REF| Vector c [angstrom     0.000     0.000    30.000   |c| =    30.000000
 CELL_REF| Angle (b,c), alpha [degree]:                                90.000000
 CELL_REF| Angle (a,c), beta  [degree]:                                90.000000
 CELL_REF| Angle (a,b), gamma [degree]:                                90.000000
 CELL_REF| Numerically orthorhombic:                                         YES
 CELL_REF| Periodicity                                                      NONE

 *******************************************************************************
 *******************************************************************************
 **                                                                           **
 **     #####                         ##              ##                      **
 **    ##   ##            ##          ##              ##                      **
 **   ##     ##                       ##            ######                    **
 **   ##     ##  ##   ##  ##   #####  ##  ##   ####   ##    #####    #####    **
 **   ##     ##  ##   ##  ##  ##      ## ##   ##      ##   ##   ##  ##   ##   **
 **   ##  ## ##  ##   ##  ##  ##      ####     ###    ##   ######   ######    **
 **    ##  ###   ##   ##  ##  ##      ## ##      ##   ##   ##       ##        **
 **     #######   #####   ##   #####  ##  ##  ####    ##    #####   ##        **
 **           ##                                                    ##        **
 **                                                                           **
 **                                                ... make the atoms dance   **
 **                                                                           **
 **            Copyright (C) by CP2K developers group (2000-2025)             **
 **                      J. Chem. Phys. 152, 194103 (2020)                    **
 **                                                                           **
 *******************************************************************************

 DFT| Spin restricted Kohn-Sham (RKS) calculation                            RKS
 DFT| Multiplicity                                                             1
 DFT| Number of spin states                                                    1
 DFT| Charge                                                                   0
 DFT| Self-interaction correction (SIC)                                       NO
 DFT| Cutoffs: density                                              1.000000E-10
 DFT|          gradient                                             1.000000E-10
 DFT|          tau                                                  1.000000E-10
 DFT|          cutoff_smoothing_range                               0.000000E+00
 DFT| XC density smoothing                                                  NONE
 DFT| XC derivatives                                                          PW

 FUNCTIONAL| PBE:
 FUNCTIONAL| J.P.Perdew, K.Burke, M.Ernzerhof, Phys. Rev. Letter, vol. 77, n 18,
 FUNCTIONAL|  pp. 3865-3868, (1996)sx=0.750sc=1.000{spin unpolarized}           


 QS| Method:                                                                GAPW
 QS| Density plane wave grid type                        NON-SPHERICAL FULLSPACE
 QS| Number of grid levels:                                                    4
 QS| Density cutoff [a.u.]:                                                250.0
 QS| Multi grid cutoff [a.u.]: 1) grid level                               250.0
 QS|                           2) grid level                                83.3
 QS|                           3) grid level                                27.8
 QS|                           4) grid level                                 9.3
 QS| Grid level progression factor:                                          3.0
 QS| Relative density cutoff [a.u.]:                                        50.0
 QS| Interaction thresholds: eps_pgf_orb:                                1.0E-12
 QS|                         eps_filter_matrix:                          0.0E+00
 QS|                         eps_core_charge:                            1.0E-14
 QS|                         eps_rho_gspace:                             1.0E-12
 QS|                         eps_rho_rspace:                             1.0E-12
 QS|                         eps_gvg_rspace:                             1.0E-06
 QS|                         eps_ppl:                                    1.0E-02
 QS|                         eps_ppnl:                                   1.0E-08
 QS| GAPW|      One center basis from orbital basis primitives
 QS| GAPW|                   eps_fit:                                    1.0E-04
 QS| GAPW|                   eps_iso:                                    1.0E-12
 QS| GAPW|                   eps_svd:                                    1.0E-08
 QS| GAPW|                   eps_cpc:                                    1.0E-12
 QS| GAPW|   atom-r-grid: quadrature:                                     GC_LOG
 QS| GAPW|      atom-s-grid:  max l :                                          6
 QS| GAPW|      max_l_rho0 :                                                   2


 ATOMIC KIND INFORMATION

  1. Atomic kind: H                                     Number of atoms:       8

     Orbital Basis Set                                        aug-DZVP-MOLOPT-ae

       Number of orbital shell sets:                                           1
       Number of orbital shells:                                               5
       Number of primitive Cartesian functions:                                5
       Number of Cartesian basis functions:                                    9
       Number of spherical basis functions:                                    9
       Norm type:                                                              2

       Normalised Cartesian orbitals:

                        Set   Shell   Orbital            Exponent    Coefficient

                          1       1    2s                0.035000       0.000000
                                                         0.111920       0.009149
                                                         0.374948       0.205449
                                                         1.446686       0.373852
                                                        12.248855       0.310040

                          1       2    3s                0.035000       0.000000
                                                         0.111920       0.143650
                                                         0.374948       0.007287
                                                         1.446686      -0.188851
                                                        12.248855      -0.144753

                          1       3    4s                0.035000       0.090463
                                                         0.111920      -0.203934
                                                         0.374948      -0.000376
                                                         1.446686      -0.000051
                                                        12.248855       0.000000

                          1       4    3px               0.035000       0.000000
                                                         0.111920       0.007225
                                                         0.374948       0.280770
                                                         1.446686       0.896497
                                                        12.248855      -0.764411
                          1       4    3py               0.035000       0.000000
                                                         0.111920       0.007225
                                                         0.374948       0.280770
                                                         1.446686       0.896497
                                                        12.248855      -0.764411
                          1       4    3pz               0.035000       0.000000
                                                         0.111920       0.007225
                                                         0.374948       0.280770
                                                         1.446686       0.896497
                                                        12.248855      -0.764411

                          1       5    4px               0.035000       0.011331
                                                         0.111920       0.048737
                                                         0.374948       0.028490
                                                         1.446686       0.035587
                                                        12.248855       0.000000
                          1       5    4py               0.035000       0.011331
                                                         0.111920       0.048737
                                                         0.374948       0.028490
                                                         1.446686       0.035587
                                                        12.248855       0.000000
                          1       5    4pz               0.035000       0.011331
                                                         0.111920       0.048737
                                                         0.374948       0.028490
                                                         1.446686       0.035587
                                                        12.248855       0.000000

     RI Auxiliary Basis Set             RI_aug-DZVP-MOLOPT-ae_N_RI_047_s_p_d_f_g

       Number of orbital shell sets:                                          17
       Number of orbital shells:                                              17
       Number of primitive Cartesian functions:                               17
       Number of Cartesian basis functions:                                   53
       Number of spherical basis functions:                                   47
       Norm type:                                                              2

       Normalised Cartesian orbitals:

                        Set   Shell   Orbital            Exponent    Coefficient

                          1       1    1s                0.236911       0.242019

                          2       1    8px               0.347892       0.380843
                          2       1    8py               0.347892       0.380843
                          2       1    8pz               0.347892       0.380843

                          3       1    2s                0.423897       0.374417

                          4       1    9px               0.493166       0.589089
                          4       1    9py               0.493166       0.589089
                          4       1    9pz               0.493166       0.589089

                          5       1   14dx2              0.625366       0.723843
                          5       1   14dxy              0.625366       1.253733
                          5       1   14dxz              0.625366       1.253733
                          5       1   14dy2              0.625366       0.723843
                          5       1   14dyz              0.625366       1.253733
                          5       1   14dz2              0.625366       0.723843

                          6       1   10px               0.699103       0.911206
                          6       1   10py               0.699103       0.911206
                          6       1   10pz               0.699103       0.911206

                          7       1    3s                0.758464       0.579244

                          8       1   15dx2              0.896802       1.360281
                          8       1   15dxy              0.896802       2.356075
                          8       1   15dxz              0.896802       2.356075
                          8       1   15dy2              0.896802       1.360281
                          8       1   15dyz              0.896802       2.356075
                          8       1   15dz2              0.896802       1.360281

                          9       1   11px               0.991036       1.409457
                          9       1   11py               0.991036       1.409457
                          9       1   11pz               0.991036       1.409457

                         10       1   17fx3              1.198110       2.210915
                         10       1   17fx2y             1.198110       4.943756
                         10       1   17fx2z             1.198110       4.943756
                         10       1   17fxy2             1.198110       4.943756
                         10       1   17fxyz             1.198110       8.562836
                         10       1   17fxz2             1.198110       4.943756
                         10       1   17fy3              1.198110       2.210915
                         10       1   17fy2z             1.198110       4.943756
                         10       1   17fyz2             1.198110       4.943756
                         10       1   17fz3              1.198110       2.210915

                         11       1   16dx2              1.286053       2.556305
                         11       1   16dxy              1.286053       4.427650
                         11       1   16dxz              1.286053       4.427650
                         11       1   16dy2              1.286053       2.556305
                         11       1   16dyz              1.286053       4.427650
                         11       1   16dz2              1.286053       2.556305

                         12       1    4s                1.357095       0.896123

                         13       1   12px               1.404875       2.180155
                         13       1   12py               1.404875       2.180155
                         13       1   12pz               1.404875       2.180155

                         14       1   13px               1.991527       3.372273
                         14       1   13py               1.991527       3.372273
                         14       1   13pz               1.991527       3.372273

                         15       1    5s                2.428204       1.386354

                         16       1    6s                4.344704       2.144768

                         17       1    7s                7.773833       3.318077

       Atomic covalent radius [Angstrom]:                                  0.320

       Atomic van der Waals radius [Angstrom]:                             1.090

     The atoms of this atomic kind are PAW atoms (GAPW):
       Hard Gaussian function radius:                                      1.200
       Rho0 radius:                                                        1.200
       Maximum GTO radius used for PAW projector construction:            24.566

     GAPW Soft Basis Set                                 aug-DZVP-MOLOPT-ae_soft

       Number of orbital shell sets:                                           1
       Number of orbital shells:                                               5
       Number of primitive Cartesian functions:                                4
       Number of Cartesian basis functions:                                    9
       Number of spherical basis functions:                                    9
       Norm type:                                                              2

       Normalised Cartesian orbitals:

                        Set   Shell   Orbital            Exponent    Coefficient

                          1       1    2s                0.035000       0.000000
                                                         0.111920       0.009149
                                                         0.374948       0.205449
                                                         1.446686       0.373852

                          1       2    3s                0.035000       0.000000
                                                         0.111920       0.143650
                                                         0.374948       0.007287
                                                         1.446686      -0.188851

                          1       3    4s                0.035000       0.090463
                                                         0.111920      -0.203934
                                                         0.374948      -0.000376
                                                         1.446686      -0.000051

                          1       4    3px               0.035000       0.000000
                                                         0.111920       0.007225
                                                         0.374948       0.280770
                                                         1.446686       0.896497
                          1       4    3py               0.035000       0.000000
                                                         0.111920       0.007225
                                                         0.374948       0.280770
                                                         1.446686       0.896497
                          1       4    3pz               0.035000       0.000000
                                                         0.111920       0.007225
                                                         0.374948       0.280770
                                                         1.446686       0.896497

                          1       5    4px               0.035000       0.011331
                                                         0.111920       0.048737
                                                         0.374948       0.028490
                                                         1.446686       0.035587
                          1       5    4py               0.035000       0.011331
                                                         0.111920       0.048737
                                                         0.374948       0.028490
                                                         1.446686       0.035587
                          1       5    4pz               0.035000       0.011331
                                                         0.111920       0.048737
                                                         0.374948       0.028490
                                                         1.446686       0.035587

     AE Potential information for                                            ALL

       Description:                                       All-electron potential
                                          Krack, Parrinello, PCCP 2, 2105 (2000)

       Gaussian exponent of the core charge distribution:              12.500000
       Electronic configuration (s p d ...):                           1   0   0

  2. Atomic kind: N                                     Number of atoms:       2

     Orbital Basis Set                                        aug-DZVP-MOLOPT-ae

       Number of orbital shell sets:                                           2
       Number of orbital shells:                                              10
       Number of primitive Cartesian functions:                               12
       Number of Cartesian basis functions:                                   35
       Number of spherical basis functions:                                   30
       Norm type:                                                              2

       Normalised Cartesian orbitals:

                        Set   Shell   Orbital            Exponent    Coefficient

                          1       1    2s                0.060000      -0.096639
                                                         0.166384       0.037538
                                                         0.634073      -0.055669
                                                         2.325354       0.000000
                                                        12.268174       0.000000

                          1       2    3px               0.060000       0.000000
                                                         0.166384      -0.031930
                                                         0.634073      -0.492962
                                                         2.325354      -1.380142
                                                        12.268174      -2.349358
                          1       2    3py               0.060000       0.000000
                                                         0.166384      -0.031930
                                                         0.634073      -0.492962
                                                         2.325354      -1.380142
                                                        12.268174      -2.349358
                          1       2    3pz               0.060000       0.000000
                                                         0.166384      -0.031930
                                                         0.634073      -0.492962
                                                         2.325354      -1.380142
                                                        12.268174      -2.349358

                          1       3    4px               0.060000       0.000000
                                                         0.166384       0.169694
                                                         0.634073      -0.220766
                                                         2.325354      -0.809234
                                                        12.268174      -0.998521
                          1       3    4py               0.060000       0.000000
                                                         0.166384       0.169694
                                                         0.634073      -0.220766
                                                         2.325354      -0.809234
                                                        12.268174      -0.998521
                          1       3    4pz               0.060000       0.000000
                                                         0.166384       0.169694
                                                         0.634073      -0.220766
                                                         2.325354      -0.809234
                                                        12.268174      -0.998521

                          1       4    5px               0.060000       0.028594
                                                         0.166384       0.063224
                                                         0.634073      -0.046183
                                                         2.325354       0.000000
                                                        12.268174       0.000000
                          1       4    5py               0.060000       0.028594
                                                         0.166384       0.063224
                                                         0.634073      -0.046183
                                                         2.325354       0.000000
                                                        12.268174       0.000000
                          1       4    5pz               0.060000       0.028594
                                                         0.166384       0.063224
                                                         0.634073      -0.046183
                                                         2.325354       0.000000
                                                        12.268174       0.000000

                          1       5    4dx2              0.060000       0.000000
                                                         0.166384       0.019402
                                                         0.634073       0.555487
                                                         2.325354       1.255926
                                                        12.268174      -0.426175
                          1       5    4dxy              0.060000       0.000000
                                                         0.166384       0.033606
                                                         0.634073       0.962132
                                                         2.325354       2.175327
                                                        12.268174      -0.738157
                          1       5    4dxz              0.060000       0.000000
                                                         0.166384       0.033606
                                                         0.634073       0.962132
                                                         2.325354       2.175327
                                                        12.268174      -0.738157
                          1       5    4dy2              0.060000       0.000000
                                                         0.166384       0.019402
                                                         0.634073       0.555487
                                                         2.325354       1.255926
                                                        12.268174      -0.426175
                          1       5    4dyz              0.060000       0.000000
                                                         0.166384       0.033606
                                                         0.634073       0.962132
                                                         2.325354       2.175327
                                                        12.268174      -0.738157
                          1       5    4dz2              0.060000       0.000000
                                                         0.166384       0.019402
                                                         0.634073       0.555487
                                                         2.325354       1.255926
                                                        12.268174      -0.426175

                          1       6    5dx2              0.060000      -0.008089
                                                         0.166384      -0.027907
                                                         0.634073      -0.057221
                                                         2.325354       0.000000
                                                        12.268174       0.000000
                          1       6    5dxy              0.060000      -0.014011
                                                         0.166384      -0.048336
                                                         0.634073      -0.099109
                                                         2.325354       0.000000
                                                        12.268174       0.000000
                          1       6    5dxz              0.060000      -0.014011
                                                         0.166384      -0.048336
                                                         0.634073      -0.099109
                                                         2.325354       0.000000
                                                        12.268174       0.000000
                          1       6    5dy2              0.060000      -0.008089
                                                         0.166384      -0.027907
                                                         0.634073      -0.057221
                                                         2.325354       0.000000
                                                        12.268174       0.000000
                          1       6    5dyz              0.060000      -0.014011
                                                         0.166384      -0.048336
                                                         0.634073      -0.099109
                                                         2.325354       0.000000
                                                        12.268174       0.000000
                          1       6    5dz2              0.060000      -0.008089
                                                         0.166384      -0.027907
                                                         0.634073      -0.057221
                                                         2.325354       0.000000
                                                        12.268174       0.000000

                          1       7    5fx3              0.060000       0.000067
                                                         0.166384       0.012645
                                                         0.634073       0.328269
                                                         2.325354       1.687172
                                                        12.268174       0.000000
                          1       7    5fx2y             0.060000       0.000150
                                                         0.166384       0.028275
                                                         0.634073       0.734031
                                                         2.325354       3.772631
                                                        12.268174       0.000000
                          1       7    5fx2z             0.060000       0.000150
                                                         0.166384       0.028275
                                                         0.634073       0.734031
                                                         2.325354       3.772631
                                                        12.268174       0.000000
                          1       7    5fxy2             0.060000       0.000150
                                                         0.166384       0.028275
                                                         0.634073       0.734031
                                                         2.325354       3.772631
                                                        12.268174       0.000000
                          1       7    5fxyz             0.060000       0.000260
                                                         0.166384       0.048973
                                                         0.634073       1.271379
                                                         2.325354       6.534389
                                                        12.268174       0.000000
                          1       7    5fxz2             0.060000       0.000150
                                                         0.166384       0.028275
                                                         0.634073       0.734031
                                                         2.325354       3.772631
                                                        12.268174       0.000000
                          1       7    5fy3              0.060000       0.000067
                                                         0.166384       0.012645
                                                         0.634073       0.328269
                                                         2.325354       1.687172
                                                        12.268174       0.000000
                          1       7    5fy2z             0.060000       0.000150
                                                         0.166384       0.028275
                                                         0.634073       0.734031
                                                         2.325354       3.772631
                                                        12.268174       0.000000
                          1       7    5fyz2             0.060000       0.000150
                                                         0.166384       0.028275
                                                         0.634073       0.734031
                                                         2.325354       3.772631
                                                        12.268174       0.000000
                          1       7    5fz3              0.060000       0.000067
                                                         0.166384       0.012645
                                                         0.634073       0.328269
                                                         2.325354       1.687172
                                                        12.268174       0.000000

                          2       1    1s                0.191012      -0.002582
                                                         0.666629       0.012902
                                                         4.403487      -0.858326
                                                        14.651380      -2.749170
                                                        57.692026      -2.958222
                                                       257.997554      -1.897300
                                                      1713.054433      -1.166486

                          2       2    2s                0.191012       0.079194
                                                         0.666629       0.351708
                                                         4.403487       0.009155
                                                        14.651380       0.000424
                                                        57.692026       0.772862
                                                       257.997554      -0.458166
                                                      1713.054433       0.520658

                          2       3    3s                0.191012       0.300064
                                                         0.666629      -0.436823
                                                         4.403487      -0.072962
                                                        14.651380      -0.095292
                                                        57.692026      -1.262420
                                                       257.997554       0.741400
                                                      1713.054433      -0.270364

     RI Auxiliary Basis Set             RI_aug-DZVP-MOLOPT-ae_N_RI_089_s_p_d_f_g

       Number of orbital shell sets:                                          23
       Number of orbital shells:                                              23
       Number of primitive Cartesian functions:                               23
       Number of Cartesian basis functions:                                  115
       Number of spherical basis functions:                                   89
       Norm type:                                                              2

       Normalised Cartesian orbitals:

                        Set   Shell   Orbital            Exponent    Coefficient

                          1       1    8px               0.212834       0.206058
                          1       1    8py               0.212834       0.206058
                          1       1    8pz               0.212834       0.206058

                          2       1    1s                0.308364       0.294923

                          3       1   14dx2              0.364281       0.281141
                          3       1   14dxy              0.364281       0.486951
                          3       1   14dxz              0.364281       0.486951
                          3       1   14dy2              0.364281       0.281141
                          3       1   14dyz              0.364281       0.486951
                          3       1   14dz2              0.364281       0.281141

                          4       1   19fx3              0.368644       0.155891
                          4       1   19fx2y             0.368644       0.348582
                          4       1   19fx2z             0.368644       0.348582
                          4       1   19fxy2             0.368644       0.348582
                          4       1   19fxyz             0.368644       0.603762
                          4       1   19fxz2             0.368644       0.348582
                          4       1   19fy3              0.368644       0.155891
                          4       1   19fy2z             0.368644       0.348582
                          4       1   19fyz2             0.368644       0.348582
                          4       1   19fz3              0.368644       0.155891

                          5       1    2s                0.390066       0.351774

                          6       1   15dx2              0.551710       0.581304
                          6       1   15dxy              0.551710       1.006848
                          6       1   15dxz              0.551710       1.006848
                          6       1   15dy2              0.551710       0.581304
                          6       1   15dyz              0.551710       1.006848
                          6       1   15dz2              0.551710       0.581304

                          7       1    9px               0.581839       0.724341
                          7       1    9py               0.581839       0.724341
                          7       1    9pz               0.581839       0.724341

                          8       1   22gx4              0.707666       0.429996
                          8       1   22gx3y             0.707666       1.137662
                          8       1   22gx3z             0.707666       1.137662
                          8       1   22gx2y2            0.707666       1.468715
                          8       1   22gx2yz            0.707666       2.543889
                          8       1   22gx2z2            0.707666       1.468715
                          8       1   22gxy3             0.707666       1.137662
                          8       1   22gxy2z            0.707666       2.543889
                          8       1   22gxyz2            0.707666       2.543889
                          8       1   22gxz3             0.707666       1.137662
                          8       1   22gy4              0.707666       0.429996
                          8       1   22gy3z             0.707666       1.137662
                          8       1   22gy2z2            0.707666       1.468715
                          8       1   22gyz3             0.707666       1.137662
                          8       1   22gz4              0.707666       0.429996

                          9       1   20fx3              0.985610       1.424921
                          9       1   20fx2y             0.985610       3.186221
                          9       1   20fx2z             0.985610       3.186221
                          9       1   20fxy2             0.985610       3.186221
                          9       1   20fxyz             0.985610       5.518696
                          9       1   20fxz2             0.985610       3.186221
                          9       1   20fy3              0.985610       1.424921
                          9       1   20fy2z             0.985610       3.186221
                          9       1   20fyz2             0.985610       3.186221
                          9       1   20fz3              0.985610       1.424921

                         10       1    3s                1.243681       0.839348

                         11       1   16dx2              1.360208       2.819802
                         11       1   16dxy              1.360208       4.884040
                         11       1   16dxz              1.360208       4.884040
                         11       1   16dy2              1.360208       2.819802
                         11       1   16dyz              1.360208       4.884040
                         11       1   16dz2              1.360208       2.819802

                         12       1   10px               1.379900       2.131815
                         12       1   10py               1.379900       2.131815
                         12       1   10pz               1.379900       2.131815

                         13       1   23gx4              2.126813       8.865247
                         13       1   23gx3y             2.126813      23.455240
                         13       1   23gx3z             2.126813      23.455240
                         13       1   23gx2y2            2.126813      30.280585
                         13       1   23gx2yz            2.126813      52.447511
                         13       1   23gx2z2            2.126813      30.280585
                         13       1   23gxy3             2.126813      23.455240
                         13       1   23gxy2z            2.126813      52.447511
                         13       1   23gxyz2            2.126813      52.447511
                         13       1   23gxz3             2.126813      23.455240
                         13       1   23gy4              2.126813       8.865247
                         13       1   23gy3z             2.126813      23.455240
                         13       1   23gy2z2            2.126813      30.280585
                         13       1   23gyz3             2.126813      23.455240
                         13       1   23gz4              2.126813       8.865247

                         14       1   17dx2              2.646890       9.040598
                         14       1   17dxy              2.646890      15.658775
                         14       1   17dxz              2.646890      15.658775
                         14       1   17dy2              2.646890       9.040598
                         14       1   17dyz              2.646890      15.658775
                         14       1   17dz2              2.646890       9.040598

                         15       1   21fx3              3.206167      20.249915
                         15       1   21fx2y             3.206167      45.280186
                         15       1   21fx2z             3.206167      45.280186
                         15       1   21fxy2             3.206167      45.280186
                         15       1   21fxyz             3.206167      78.427583
                         15       1   21fxz2             3.206167      45.280186
                         15       1   21fy3              3.206167      20.249915
                         15       1   21fy2z             3.206167      45.280186
                         15       1   21fyz2             3.206167      45.280186
                         15       1   21fz3              3.206167      20.249915

                         16       1   11px               4.091983       8.295782
                         16       1   11py               4.091983       8.295782
                         16       1   11pz               4.091983       8.295782

                         17       1    4s                4.301326       2.128687

                         18       1   18dx2              5.637053      33.943033
                         18       1   18dxy              5.637053      58.791058
                         18       1   18dxz              5.637053      58.791058
                         18       1   18dy2              5.637053      33.943033
                         18       1   18dyz              5.637053      58.791058
                         18       1   18dz2              5.637053      33.943033

                         19       1   12px               9.459890      23.648179
                         19       1   12py               9.459890      23.648179
                         19       1   12pz               9.459890      23.648179

                         20       1    5s               12.763100       4.812572

                         21       1   13px              22.221211      68.770113
                         21       1   13py              22.221211      68.770113
                         21       1   13pz              22.221211      68.770113

                         22       1    6s               37.554587      10.812032

                         23       1    7s              110.128942      24.229039

       Atomic covalent radius [Angstrom]:                                  0.750

       Atomic van der Waals radius [Angstrom]:                             1.550

     The atoms of this atomic kind are PAW atoms (GAPW):
       Hard Gaussian function radius:                                      1.512
       Rho0 radius:                                                        1.512
       Maximum GTO radius used for PAW projector construction:            24.566

     GAPW Soft Basis Set                                 aug-DZVP-MOLOPT-ae_soft

       Number of orbital shell sets:                                           2
       Number of orbital shells:                                              10
       Number of primitive Cartesian functions:                                6
       Number of Cartesian basis functions:                                   35
       Number of spherical basis functions:                                   30
       Norm type:                                                              2

       Normalised Cartesian orbitals:

                        Set   Shell   Orbital            Exponent    Coefficient

                          1       1    2s                0.060000      -0.096639
                                                         0.166384       0.037538
                                                         0.634073      -0.055669
                                                         2.325354       0.000000

                          1       2    3px               0.060000       0.000000
                                                         0.166384      -0.031930
                                                         0.634073      -0.492962
                                                         2.325354      -1.380142
                          1       2    3py               0.060000       0.000000
                                                         0.166384      -0.031930
                                                         0.634073      -0.492962
                                                         2.325354      -1.380142
                          1       2    3pz               0.060000       0.000000
                                                         0.166384      -0.031930
                                                         0.634073      -0.492962
                                                         2.325354      -1.380142

                          1       3    4px               0.060000       0.000000
                                                         0.166384       0.169694
                                                         0.634073      -0.220766
                                                         2.325354      -0.809234
                          1       3    4py               0.060000       0.000000
                                                         0.166384       0.169694
                                                         0.634073      -0.220766
                                                         2.325354      -0.809234
                          1       3    4pz               0.060000       0.000000
                                                         0.166384       0.169694
                                                         0.634073      -0.220766
                                                         2.325354      -0.809234

                          1       4    5px               0.060000       0.028594
                                                         0.166384       0.063224
                                                         0.634073      -0.046183
                                                         2.325354       0.000000
                          1       4    5py               0.060000       0.028594
                                                         0.166384       0.063224
                                                         0.634073      -0.046183
                                                         2.325354       0.000000
                          1       4    5pz               0.060000       0.028594
                                                         0.166384       0.063224
                                                         0.634073      -0.046183
                                                         2.325354       0.000000

                          1       5    4dx2              0.060000       0.000000
                                                         0.166384       0.019402
                                                         0.634073       0.555487
                                                         2.325354       1.255926
                          1       5    4dxy              0.060000       0.000000
                                                         0.166384       0.033606
                                                         0.634073       0.962132
                                                         2.325354       2.175327
                          1       5    4dxz              0.060000       0.000000
                                                         0.166384       0.033606
                                                         0.634073       0.962132
                                                         2.325354       2.175327
                          1       5    4dy2              0.060000       0.000000
                                                         0.166384       0.019402
                                                         0.634073       0.555487
                                                         2.325354       1.255926
                          1       5    4dyz              0.060000       0.000000
                                                         0.166384       0.033606
                                                         0.634073       0.962132
                                                         2.325354       2.175327
                          1       5    4dz2              0.060000       0.000000
                                                         0.166384       0.019402
                                                         0.634073       0.555487
                                                         2.325354       1.255926

                          1       6    5dx2              0.060000      -0.008089
                                                         0.166384      -0.027907
                                                         0.634073      -0.057221
                                                         2.325354       0.000000
                          1       6    5dxy              0.060000      -0.014011
                                                         0.166384      -0.048336
                                                         0.634073      -0.099109
                                                         2.325354       0.000000
                          1       6    5dxz              0.060000      -0.014011
                                                         0.166384      -0.048336
                                                         0.634073      -0.099109
                                                         2.325354       0.000000
                          1       6    5dy2              0.060000      -0.008089
                                                         0.166384      -0.027907
                                                         0.634073      -0.057221
                                                         2.325354       0.000000
                          1       6    5dyz              0.060000      -0.014011
                                                         0.166384      -0.048336
                                                         0.634073      -0.099109
                                                         2.325354       0.000000
                          1       6    5dz2              0.060000      -0.008089
                                                         0.166384      -0.027907
                                                         0.634073      -0.057221
                                                         2.325354       0.000000

                          1       7    5fx3              0.060000       0.000067
                                                         0.166384       0.012645
                                                         0.634073       0.328269
                                                         2.325354       1.687172
                          1       7    5fx2y             0.060000       0.000150
                                                         0.166384       0.028275
                                                         0.634073       0.734031
                                                         2.325354       3.772631
                          1       7    5fx2z             0.060000       0.000150
                                                         0.166384       0.028275
                                                         0.634073       0.734031
                                                         2.325354       3.772631
                          1       7    5fxy2             0.060000       0.000150
                                                         0.166384       0.028275
                                                         0.634073       0.734031
                                                         2.325354       3.772631
                          1       7    5fxyz             0.060000       0.000260
                                                         0.166384       0.048973
                                                         0.634073       1.271379
                                                         2.325354       6.534389
                          1       7    5fxz2             0.060000       0.000150
                                                         0.166384       0.028275
                                                         0.634073       0.734031
                                                         2.325354       3.772631
                          1       7    5fy3              0.060000       0.000067
                                                         0.166384       0.012645
                                                         0.634073       0.328269
                                                         2.325354       1.687172
                          1       7    5fy2z             0.060000       0.000150
                                                         0.166384       0.028275
                                                         0.634073       0.734031
                                                         2.325354       3.772631
                          1       7    5fyz2             0.060000       0.000150
                                                         0.166384       0.028275
                                                         0.634073       0.734031
                                                         2.325354       3.772631
                          1       7    5fz3              0.060000       0.000067
                                                         0.166384       0.012645
                                                         0.634073       0.328269
                                                         2.325354       1.687172

                          2       1    1s                0.191012      -0.002582
                                                         0.666629       0.012902

                          2       2    2s                0.191012       0.079194
                                                         0.666629       0.351708

                          2       3    3s                0.191012       0.300064
                                                         0.666629      -0.436823

     AE Potential information for                                            ALL

       Description:                                       All-electron potential
                                          Krack, Parrinello, PCCP 2, 2105 (2000)

       Gaussian exponent of the core charge distribution:               5.979100
       Electronic configuration (s p d ...):                           4   3   0

  3. Atomic kind: C                                     Number of atoms:       6

     Orbital Basis Set                                        aug-DZVP-MOLOPT-ae

       Number of orbital shell sets:                                           2
       Number of orbital shells:                                              10
       Number of primitive Cartesian functions:                               13
       Number of Cartesian basis functions:                                   35
       Number of spherical basis functions:                                   30
       Norm type:                                                              2

       Normalised Cartesian orbitals:

                        Set   Shell   Orbital            Exponent    Coefficient

                          1       1    2px               0.050000       0.000000
                                                         0.096935       0.005344
                                                         0.300899       0.144116
                                                         0.937529       0.673511
                                                         4.145546       1.425967
                          1       1    2py               0.050000       0.000000
                                                         0.096935       0.005344
                                                         0.300899       0.144116
                                                         0.937529       0.673511
                                                         4.145546       1.425967
                          1       1    2pz               0.050000       0.000000
                                                         0.096935       0.005344
                                                         0.300899       0.144116
                                                         0.937529       0.673511
                                                         4.145546       1.425967

                          1       2    3px               0.050000       0.000000
                                                         0.096935       0.066903
                                                         0.300899       0.082631
                                                         0.937529      -0.414500
                                                         4.145546      -0.833488
                          1       2    3py               0.050000       0.000000
                                                         0.096935       0.066903
                                                         0.300899       0.082631
                                                         0.937529      -0.414500
                                                         4.145546      -0.833488
                          1       2    3pz               0.050000       0.000000
                                                         0.096935       0.066903
                                                         0.300899       0.082631
                                                         0.937529      -0.414500
                                                         4.145546      -0.833488

                          1       3    4px               0.050000       0.052477
                                                         0.096935      -0.149600
                                                         0.300899      -0.031452
                                                         0.937529       0.106528
                                                         4.145546       0.000000
                          1       3    4py               0.050000       0.052477
                                                         0.096935      -0.149600
                                                         0.300899      -0.031452
                                                         0.937529       0.106528
                                                         4.145546       0.000000
                          1       3    4pz               0.050000       0.052477
                                                         0.096935      -0.149600
                                                         0.300899      -0.031452
                                                         0.937529       0.106528
                                                         4.145546       0.000000

                          1       4    3dx2              0.050000       0.000000
                                                         0.096935       0.001258
                                                         0.300899       0.105504
                                                         0.937529       0.830801
                                                         4.145546       0.718979
                          1       4    3dxy              0.050000       0.000000
                                                         0.096935       0.002179
                                                         0.300899       0.182739
                                                         0.937529       1.438990
                                                         4.145546       1.245309
                          1       4    3dxz              0.050000       0.000000
                                                         0.096935       0.002179
                                                         0.300899       0.182739
                                                         0.937529       1.438990
                                                         4.145546       1.245309
                          1       4    3dy2              0.050000       0.000000
                                                         0.096935       0.001258
                                                         0.300899       0.105504
                                                         0.937529       0.830801
                                                         4.145546       0.718979
                          1       4    3dyz              0.050000       0.000000
                                                         0.096935       0.002179
                                                         0.300899       0.182739
                                                         0.937529       1.438990
                                                         4.145546       1.245309
                          1       4    3dz2              0.050000       0.000000
                                                         0.096935       0.001258
                                                         0.300899       0.105504
                                                         0.937529       0.830801
                                                         4.145546       0.718979

                          1       5    4dx2              0.050000      -0.011665
                                                         0.096935       0.057456
                                                         0.300899      -0.258169
                                                         0.937529       0.000000
                                                         4.145546       0.000000
                          1       5    4dxy              0.050000      -0.020204
                                                         0.096935       0.099516
                                                         0.300899      -0.447162
                                                         0.937529       0.000000
                                                         4.145546       0.000000
                          1       5    4dxz              0.050000      -0.020204
                                                         0.096935       0.099516
                                                         0.300899      -0.447162
                                                         0.937529       0.000000
                                                         4.145546       0.000000
                          1       5    4dy2              0.050000      -0.011665
                                                         0.096935       0.057456
                                                         0.300899      -0.258169
                                                         0.937529       0.000000
                                                         4.145546       0.000000
                          1       5    4dyz              0.050000      -0.020204
                                                         0.096935       0.099516
                                                         0.300899      -0.447162
                                                         0.937529       0.000000
                                                         4.145546       0.000000
                          1       5    4dz2              0.050000      -0.011665
                                                         0.096935       0.057456
                                                         0.300899      -0.258169
                                                         0.937529       0.000000
                                                         4.145546       0.000000

                          1       6    4fx3              0.050000      -0.000180
                                                         0.096935       0.008160
                                                         0.300899       0.004002
                                                         0.937529       0.000000
                                                         4.145546       0.000000
                          1       6    4fx2y             0.050000      -0.000402
                                                         0.096935       0.018246
                                                         0.300899       0.008949
                                                         0.937529       0.000000
                                                         4.145546       0.000000
                          1       6    4fx2z             0.050000      -0.000402
                                                         0.096935       0.018246
                                                         0.300899       0.008949
                                                         0.937529       0.000000
                                                         4.145546       0.000000
                          1       6    4fxy2             0.050000      -0.000402
                                                         0.096935       0.018246
                                                         0.300899       0.008949
                                                         0.937529       0.000000
                                                         4.145546       0.000000
                          1       6    4fxyz             0.050000      -0.000696
                                                         0.096935       0.031603
                                                         0.300899       0.015500
                                                         0.937529       0.000000
                                                         4.145546       0.000000
                          1       6    4fxz2             0.050000      -0.000402
                                                         0.096935       0.018246
                                                         0.300899       0.008949
                                                         0.937529       0.000000
                                                         4.145546       0.000000
                          1       6    4fy3              0.050000      -0.000180
                                                         0.096935       0.008160
                                                         0.300899       0.004002
                                                         0.937529       0.000000
                                                         4.145546       0.000000
                          1       6    4fy2z             0.050000      -0.000402
                                                         0.096935       0.018246
                                                         0.300899       0.008949
                                                         0.937529       0.000000
[...]
 augmented-plane-wave method.
 https://doi.org/10.2533/000942905777676164

 M. Frigo, S. G. Johnson.
 Proc. IEEE 93, 216-231 (2005).
 The design and implementation of FFTW3.
 https://doi.org/10.1109/JPROC.2004.840301

 R. L. Martin.
 J. Chem. Phys. 118, 4775-4777 (2003).
 Natural transition orbitals.
 https://doi.org/10.1063/1.1558471

 M. Krack, M. Parrinello.
 Phys. Chem. Chem. Phys. 2, 2105-2112 (2000).
 All-electron ab-initio molecular dynamics.
 https://doi.org/10.1039/b001167n

 G. Lippert, J. Hutter, M. Parrinello.
 Theor. Chem. Acc. 103, 124-140 (1999).
 The Gaussian and augmented-plane-wave density functional method for ab initio 
 molecular dynamics simulations.
 https://doi.org/10.1007/s002140050523

 J. P. Perdew, K. Burke, M. Ernzerhof.
 Phys. Rev. Lett. 77, 3865-3868 (1996).
 Generalized gradient approximation made simple.
 https://doi.org/10.1103/PhysRevLett.77.3865


 -------------------------------------------------------------------------------
 -                                                                             -
 -                                T I M I N G                                  -
 -                                                                             -
 -------------------------------------------------------------------------------
 SUBROUTINE                       CALLS  ASD         SELF TIME        TOTAL TIME
                                MAXIMUM       AVERAGE  MAXIMUM  AVERAGE  MAXIMUM
 CP2K                                 1  1.0    0.017    0.039  499.549  499.551
 qs_energies                          1  2.0    0.000    0.000  499.152  499.153
 qs_energies_properties               1  3.0    0.000    0.000  338.769  338.770
 tddfpt                               1  4.0    0.000    0.000  338.769  338.770
 tddfpt_energies                      1  5.0    0.000    0.000  338.725  338.726
 tddfpt_davidson_solver               1  6.0    0.001    0.002  336.622  336.623
 tddfpt_compute_Aop_evects           11  7.0    0.000    0.000  334.320  334.321
 fhxc_kernel                         11  8.0    0.009    0.011  292.354  292.356
 fft_wrap_pw1pw2                   6031 11.1    0.117    0.151  161.625  170.361
 fft_wrap_pw1pw2_250               4243 12.2    3.360    4.434  152.765  166.923
 scf_env_do_scf                       1  3.0    0.000    0.000  159.151  159.159
 scf_env_do_scf_inner_loop           77  4.0    0.002    0.004  159.151  159.159
 fft3d_ps                          6031 13.1   21.150   29.292  148.197  155.990
 mp_alltoall_z22v                  6031 15.1  120.327  127.194  120.327  127.194
 qs_ks_update_qs_env                 77  5.0    0.001    0.001  126.262  126.333
 rebuild_ks_matrix                   77  6.0    0.000    0.000  126.255  126.326
 qs_ks_build_kohn_sham_matrix        77  7.0    0.010    0.013  126.255  126.326
 tddfpt_apply_coulomb               220  9.0    0.004    0.005   94.401   97.550
 qs_rho_update_rho_low              299  7.9    0.003    0.004   93.047   93.070
 pw_poisson_solve                   297  9.5    1.251    1.653   86.876   89.947
 calculate_rho_elec                 299  8.9    0.392    0.556   88.165   88.174
 integrate_four_center              517  9.9   20.869   34.739   87.150   87.229
 x_to_yz                           2457 13.8    2.679    4.639   65.636   68.217
 yz_to_x                           2382 14.5    2.093    2.377   59.291   65.742
 xc_pw_derive                      1785 11.0    0.014    0.016   61.255   63.709
 tddfpt_apply_xc_analytic           220  9.0    0.351    0.506   55.489   57.319
 integrate_v_rspace                 297  9.0    0.008    0.010   53.363   55.667
 density_rs2pw                      299  9.9    0.013    0.015   50.440   54.100
 potential_pw2rs                    297 10.0    0.031    0.039   50.107   50.317
 transfer_pw2rs                    1486 10.9    0.028    0.037   46.852   48.399
 hfx_ks_matrix                       77  8.0    0.001    0.002   48.104   48.126
 ps_wavelet_solve                   297 10.5   17.696   24.484   42.789   46.477
 mp_waitany                       97798 12.9   35.146   42.192   35.146   42.192
 xc_pw_divergence                   297 10.7    0.006    0.007   40.513   41.734
 tddfpt_apply_hfx                    11  8.0    0.003    0.003   41.529   41.529
 grid_collocate_task_list           299  9.9   34.564   39.333   34.564   39.333
 integrate_four_center_main         517 10.9    0.147    0.305   32.106   39.224
 tddft_hfx_matrix                   440  9.0    0.005    0.008   39.056   39.119
 integrate_four_center_bin        52830 11.8   31.959   39.109   31.959   39.109
 prepare_gapw_den                   298  8.7    0.005    0.006   35.920   38.320
 mp_sync                           2722 11.5   20.971   36.384   20.971   36.384
 transfer_rs2pw                    1495 10.9    0.035    0.057   31.423   34.758
 xc_calc_2nd_deriv_analytical      1540 10.2    1.572    1.918   32.374   33.218
 mp_sum_d                          8961  7.5   13.975   32.845   13.975   32.845
 transfer_pw2rs_250                 595 11.7    5.797    6.176   28.367   30.409
 mp_alltoall_d54                    297 11.5   12.588   27.117   12.588   27.117
 put_rho0_on_grid                   298  9.7    0.435    0.642   24.233   26.625
 integrate_vhg0_rspace              297  9.5    0.597    0.680   23.980   25.004
 transfer_rs2pw_250                 598 11.8    5.962    6.659   19.688   23.229
 qs_vxc_create                       77  8.0    0.001    0.001   21.918   21.918
 xc_vxc_pw_create                    77  9.0    0.161    0.223   21.917   21.918
 fft_wrap_pw1pw2_90                 596 12.0    0.116    0.199    7.250   19.044
 mp_alltoall_d11v                 19172 11.7   11.928   17.088   11.928   17.088
 mp_alltoall_d45                    298 11.5   12.817   16.732   12.817   16.732
 mp_waitall_1                    590234 13.3   11.842   15.175   11.842   15.175
 transfer_pw2rs_90                  297 12.0    1.027    1.225   10.448   14.331
 mp_sum_dm                        17123 10.1   12.785   14.070   12.785   14.070
 mp_isend_dm3                     11926 12.9    8.792   12.206    8.792   12.206
 sum_up_and_integrate                77  8.0    0.001    0.001   11.335   11.948
 xc_rho_set_and_dset_create          78 10.0    0.195    0.259   10.320   11.519
 calculate_rho_atom                1490  9.7    2.808   10.743    2.808   10.743
 cp2k_distribution_to_z_slices      297 10.5    1.223    1.421    8.151    9.785
 gaVxcgb_GC                         891  9.7    0.215    9.599    0.215    9.599
 calculate_xc_2nd_deriv_atom        220  9.0    0.117    1.782    0.335    9.442
 calc_screening_functions             1 10.0    8.101    8.213    9.060    9.186
 mp_sum_dv                        37426  8.9    8.236    8.872    8.236    8.872
 transfer_pw2rs_30                  297 12.0    1.297    1.481    6.873    8.641
 Vh_1c_gg_integrals                 297  9.5    0.060    1.258    3.176    8.630
 pw_integral_ab_c1d_c1d_gs          297 10.5    0.819    0.936    3.190    7.252
 transfer_rs2pw_90                  299 11.9    1.293    1.481    6.154    7.185
 gspace_mixing                       76  5.0    0.099    0.141    7.043    7.051
 update_ks_atom                     297  8.7    0.170    0.434    3.670    6.058
 mp_bcast_dm                      11286  9.7    3.500    5.981    3.500    5.981
 rs_grid_zero                      1488 11.9    5.173    5.553    5.173    5.553
 grid_integrate_task_list           297 10.0    0.517    5.285    0.517    5.285
 rs_gather_matrices                 297 10.0    0.007    0.019    2.729    5.142
 pw_derive                         2676 11.8    4.461    4.911    4.461    4.911
 calculate_rho_atom_coeff           299  8.9    0.286    0.657    4.879    4.906
 transfer_rs2pw_30                  299 11.9    1.644    1.896    4.238    4.586
 pw_copy                           4020 11.0    3.742    4.272    3.742    4.272
 pw_gather_p                       2980 13.4    3.209    3.897    3.209    3.897
 mp_sendrecv_dv                  114218 12.9    3.412    3.750    3.412    3.750
 pw_scatter_p                      3051 12.8    3.216    3.668    3.216    3.668
 cp_dbcsr_sm_fm_multiply           1366  8.6    0.017    0.020    3.266    3.391
 broyden_mixing                      76  6.0    3.097    3.140    3.228    3.256
 pw_copy_to_array                  2980 13.4    2.180    3.159    2.180    3.159
 calculate_vxc_atom                  77  8.0    0.049    0.330    2.947    2.948
 parallel_gemm_fm                  1991  8.3    0.002    0.002    2.824    2.871
 parallel_gemm_fm_cosma            1991  9.3    2.822    2.869    2.822    2.869
 pw_poisson_set                     298 10.5    0.005    0.007    2.722    2.823
 mp_max_i                           798  5.4    1.238    2.664    1.238    2.664
 dbcsr_multiply_generic            1883 10.3    0.046    0.048    2.112    2.233
 integrate_four_center_getP         517 10.9    0.136    0.212    1.753    2.220
 qs_scf_new_mos                      77  5.0    0.001    0.001    2.064    2.104
 pw_axpy                           3198 10.9    1.656    1.982    1.656    1.982
 pw_zero                           3328 10.6    1.636    1.945    1.636    1.945
 cp_fm_diag_elpa                    130  7.2    0.000    0.000    1.861    1.868
 powell_optimize                1166758 11.0    1.718    1.863    1.718    1.863
 cp_fm_diag_elpa_base               130  8.2    1.832    1.839    1.845    1.847
 dbcsr_complete_redistribute       4528 10.5    0.123    0.183    1.711    1.834
 xc_functional_eval                1860 10.9    0.001    0.005    1.075    1.824
 pbe_lda_eval                      1860 11.9    1.073    1.821    1.073    1.821
 eigensolver_symm                    77  6.0    0.005    0.007    1.756    1.780
 calc_pair_dist_radii                 1 10.0    0.732    0.920    1.492    1.667
 cp_dbcsr_sm_fm_multiply_core      1366  9.6    0.002    0.003    1.516    1.637
 pw_copy_from_array                3051 12.8    1.210    1.591    1.210    1.591
 transfer_rs2pw_10                  299 11.9    0.490    0.634    1.309    1.542
 calculate_rho0_atom               1490  9.7    1.317    1.427    1.317    1.427
 fft_wrap_pw1pw2_30                 596 12.0    0.015    0.019    1.086    1.398
 integrate_four_center_dist_KS      517 10.9    0.107    0.138    1.358    1.362
 tddfpt_print_nto_analysis            1  6.0    0.002    0.002    1.321    1.321
 mp_alltoall_i22                   5994 11.5    1.089    1.304    1.089    1.304
 copy_fm_to_dbcsr                  3061  9.6    0.008    0.009    1.045    1.206
 mp_alltoall_z11v                  1192 15.0    0.939    1.206    0.939    1.206
 transfer_pw2rs_10                  297 12.0    0.344    0.398    1.135    1.206
 copy_dbcsr_to_fm                  1465  9.4    0.011    0.011    1.100    1.192
 multiply_cannon                   1883 11.3    0.110    0.122    0.957    1.095
 mp_rank_compare                   6031 14.1    0.866    0.940    0.866    0.940
 prepare_dr1dr                     1540 11.2    0.675    0.916    0.675    0.916
 tddfpt_orthonormalize_psi1_psi      12  6.9    0.015    0.017    0.903    0.903
 mp_isendrecv_dv                 310948 12.3    0.216    0.873    0.216    0.873
 mp_sum_l                          7115 10.7    0.703    0.857    0.703    0.857
 mp_irecv_dm3                     11926 12.9    0.305    0.836    0.305    0.836
 cp_fm_geeig                         20  7.0    0.001    0.001    0.831    0.832
 tddfpt_compute_residual_vects       10  7.0    0.001    0.001    0.829    0.830
 multiply_cannon_loop              1883 12.3    0.119    0.124    0.679    0.810
 cp_dbcsr_plus_fm_fm_t              297  8.5    0.002    0.003    0.778    0.793
 pw_poisson_rebuild                 297 10.5    0.000    0.001    0.733    0.759
 ps_wavelet_create                    1 10.0    0.000    0.000    0.733    0.759
 RS_z_slice_distribution              1 11.0    0.192    0.217    0.733    0.759
 qs_energies_init_hamiltonians        1  3.0    0.000    0.000    0.732    0.732
 build_core_hamiltonian_matrix        1  4.0    0.000    0.000    0.728    0.728
 overlap_condnum                      1  5.0    0.000    0.000    0.723    0.728
 yz_to_xz                           594 14.0    0.041    0.054    0.519    0.710
 arnoldi_conjugate_gradient           5  6.0    0.012    0.015    0.681    0.681
 offload_free_buffer                305 10.3    0.483    0.647    0.483    0.647
 make_m2s                          3766 11.3    0.034    0.036    0.607    0.639
 xz_to_yz                           598 13.9    0.031    0.036    0.492    0.580
 make_images                       3766 12.3    0.101    0.109    0.526    0.556
 fft_wrap_pw1pw2_10                 596 12.0    0.005    0.006    0.406    0.544
 xc_2nd_deriv_of_r                 1320 10.0    0.002    0.056    0.017    0.491
 tddfpt_construct_ground_state_       1  6.0    0.000    0.000    0.475    0.488
 cp_fm_trace_a1b1t1_aa            24520  8.0    0.042    0.045    0.472    0.478
 integrate_four_center_load         517 10.9    0.001    0.001    0.316    0.467
 hfx_load_balance                     1 11.0    0.000    0.000    0.316    0.467
 hfx_load_balance_range               1 12.0    0.000    0.000    0.302    0.453
 dbcsr_sym_matrix_vector_mult      4075  7.0    0.029    0.031    0.404    0.443
 tddfpt_apply_energy_diff            11  8.0    0.001    0.001    0.437    0.437
 init_scf_run                         1  3.0    0.000    0.000    0.412    0.413
 dbcsr_desymmetrize_deep           1466 10.4    0.021    0.027    0.317    0.411
 multiply_cannon_metrocomm3       45192 13.3    0.063    0.066    0.238    0.406
 scf_env_initial_rho_setup            1  4.0    0.000    0.000    0.392    0.393
 mp_isend_dv                     176256 13.6    0.207    0.366    0.207    0.366
 tddfpt_orthogonalize_psi1_psi0      12  6.9    0.000    0.000    0.337    0.361
 scale_and_distribute               594 11.5    0.228    0.350    0.228    0.350
 make_images_sizes                 3766 13.3    0.003    0.003    0.271    0.288
 mp_alltoall_i44                   3766 14.3    0.268    0.285    0.268    0.285
 mp_cart_sub                       2934 11.4    0.260    0.264    0.260    0.264
 dbcsr_rep_row_to_rep_col_vec      4075  8.0    0.010    0.012    0.157    0.253
 dbcsr_finalize                   15019 11.4    0.024    0.044    0.141    0.226
 mp_cart_create                    2955 10.5    0.197    0.215    0.200    0.219
 tddfpt_is_nonorthogonal_psi1_p      10  7.0    0.000    0.000    0.206    0.206
 multiply_cannon_metrocomm1       45192 13.3    0.024    0.026    0.065    0.206
 cube_transpose_2                   598 13.9    0.010    0.012    0.107    0.194
 multiply_cannon_multrec          45192 13.3    0.034    0.187    0.039    0.192
 create_qs_kind_set                   1  2.0    0.000    0.000    0.188    0.188
 read_qs_kind                         5  3.0    0.081    0.102    0.188    0.188
 cp_fm_cholesky_decompose            20  8.0    0.179    0.181    0.179    0.181
 dbcsr_col_vec_to_rep_row          4075  8.0    0.013    0.015    0.104    0.181
 calculate_dm_sparse                 77  6.0    0.000    0.000    0.170    0.180
 pw_scale                           748  9.5    0.123    0.178    0.123    0.178
 mp_irecv_dv                     174450 13.6    0.101    0.177    0.101    0.177
 mp_alltoall_i11v                 15050 11.5    0.092    0.176    0.092    0.176
 cp_fm_triangular_invert             20  8.0    0.173    0.174    0.173    0.174
 create_kernel_env                    1  6.0    0.000    0.000    0.154    0.173
 xc_prep_2nd_deriv                    1  7.0    0.000    0.000    0.154    0.173
 rs_scatter_matrices                299  9.9    0.003    0.006    0.015    0.172
 cube_transpose_1                   594 14.0    0.010    0.012    0.086    0.158
 multiply_cannon_metrocomm4       43309 13.3    0.066    0.076    0.122    0.157
 rs_grid_create                     303 10.4    0.002    0.003    0.025    0.155
 offload_create_buffer              305 11.4    0.023    0.153    0.023    0.153
 qs_init_subsys                       1  2.0    0.002    0.002    0.150    0.150
 multiply_cannon_metrocomm2       39543 13.3    0.058    0.066    0.097    0.144
 mp_allgather_i34                  1883 12.3    0.107    0.140    0.107    0.140
 dbcsr_merge_all                  12892 12.4    0.061    0.096    0.091    0.139
 qs_env_setup                         1  3.0    0.000    0.000    0.135    0.136
 qs_env_rebuild_pw_env                2  3.5    0.000    0.000    0.134    0.135
 pw_env_rebuild                       1  5.0    0.000    0.000    0.134    0.135
 dbcsr_create_new                 50731 11.0    0.085    0.102    0.115    0.134
 vxc_of_r_new                       462  9.0    0.000    0.010    0.004    0.128
 dbcsr_add_d                       6172  7.0    0.003    0.003    0.023    0.127
 cp_fm_write_unformatted             44  7.5    0.117    0.118    0.117    0.125
 dbcsr_add_anytype                 6172  8.0    0.004    0.017    0.020    0.124
 cp_fm_triangular_multiply           60  8.0    0.114    0.115    0.114    0.115
 dbcsr_copy                       20919  8.3    0.031    0.077    0.063    0.110
 make_images_data                  3766 13.3    0.025    0.031    0.072    0.108
 parser_read_line                 33283  4.0    0.005    0.006    0.107    0.108
 parser_read_line_low                49  5.0    0.003    0.029    0.102    0.102
 broadcast_input_information         49  6.0    0.014    0.015    0.098    0.100
 scf_post_calculation_gpw             1  3.0    0.000    0.000    0.086    0.087
 write_available_results              1  4.0    0.000    0.000    0.086    0.086
 write_mo_free_results                1  5.0    0.002    0.003    0.086    0.086
 write_mo_set_to_restart             77  5.0    0.001    0.063    0.051    0.085
 pw_grid_setup                        4  6.0    0.000    0.000    0.082    0.083
 pw_grid_setup_internal               4  7.0    0.001    0.002    0.082    0.083
 mp_bcast_b_src                     207  8.0    0.078    0.083    0.078    0.083
 dbcsr_iterator_start             79516 10.2    0.048    0.059    0.061    0.078
 external_control                    77  5.0    0.001    0.074    0.076    0.076
 hybrid_alltoall_any               5232 13.5    0.025    0.029    0.047    0.074
 tddfpt_write_restart                 2  6.5    0.000    0.050    0.068    0.074
 tddfpt_compute_ritz_vects           11  7.0    0.005    0.006    0.073    0.074
 cp_fm_symm                          77  7.0    0.066    0.071    0.066    0.071
 mp_bcast_dv                       4078  9.0    0.043    0.068    0.043    0.068
 copy_fm_to_dbcsr_bc               3061 10.6    0.017    0.020    0.060    0.068
 mp_bcast_i_src                     196  7.0    0.056    0.064    0.056    0.064
 write_mo_set_low                     4  6.0    0.000    0.000    0.050    0.057
 pw_grid_sort                         4  8.0    0.035    0.035    0.048    0.051
 dbcsr_work_create                21890 12.4    0.023    0.032    0.035    0.051
 -------------------------------------------------------------------------------

 The number of warnings for this run is : 1
 
 -------------------------------------------------------------------------------
  **** **** ******  **  PROGRAM ENDED AT                 2025-03-22 18:17:37.177
 ***** ** ***  *** **   PROGRAM RAN ON                                  n2cn1011
 **    ****   ******    PROGRAM RAN BY                                  metdyn02
 ***** **    ** ** **   PROGRAM PROCESS ID                               3127529
  **** **  *******  **  PROGRAM STOPPED IN /scratch/hpc-prf-metdyn/metdyn02_Remi
                                           /10_MOL/05_MOL/aUKBqsEOTmq69kFe5R_nOg
                                           /5k_set_final_qzvp/SULAMD03/DZVP/TDDF
                                           T/RILIM
