SIRIUS 7.6.1, git hash: https://api.github.com/repos/electronic-structure/SIRIUS/git/ref/tags/v7.6.1
 DBCSR| CPU Multiplication driver                                           XSMM (U)
 DBCSR| Multrec recursion limit                                              512 (U)
 DBCSR| Multiplication stack size                                           1000 (D)
 DBCSR| Maximum elements for images                                    UNLIMITED (U)
 DBCSR| Multiplicative factor virtual images                                   1 (U)
 DBCSR| Use multiplication densification                                       T (D)
 DBCSR| Multiplication size stacks                                             3 (U)
 DBCSR| Use memory pool for CPU allocation                                     F (U)
 DBCSR| Number of 3D layers                                               SINGLE (U)
 DBCSR| Use MPI memory allocation                                              F (U)
 DBCSR| Use RMA algorithm                                                      F (U)
 DBCSR| Use Communication thread                                               T (U)
 DBCSR| Communication thread load                                             75 (D)
 DBCSR| MPI: My process id                                                     0
 DBCSR| MPI: Number of processes                                             128
 DBCSR| OMP: Current number of threads                                         4
 DBCSR| OMP: Max number of threads                                             4
 DBCSR| Split modifier for TAS multiplication algorithm                  1.0E+00 (U)


  **** **** ******  **  PROGRAM STARTED AT               2025-04-21 16:02:12.005
 ***** ** ***  *** **   PROGRAM STARTED ON                              n2cn0333
 **    ****   ******    PROGRAM STARTED BY                              metdyn02
 ***** **    ** ** **   PROGRAM PROCESS ID                               1908252
  **** **  *******  **  PROGRAM STARTED IN /scratch/hpc-prf-metdyn/metdyn02_Remi
                                           /10_MOL/05_MOL/W4-11+ALK/hocn/DZVP/TD
                                           DFT/RILIM

 CP2K| version string:                 CP2K version 2025.1 (Development Version)
 CP2K| source code revision number:                                  git:4803c37
 CP2K| cp2kflags: omp libint fftw3 libxc libgrpp elpa parallel scalapack mpi_f08
 CP2K|             cosma xsmm plumed2 spglib sirius libvori libbqb libvdwxc hdf5
 CP2K| is freely available from                            https://www.cp2k.org/
 CP2K| Program compiled at                         Thu Apr 10 12:05:05 CEST 2025
 CP2K| Program compiled on                                              n2login1
 CP2K| Program compiled for                                                local
 CP2K| Data directory path    /opt/software/pc2/EB-SW/software/CP2K/2024.1-foss-
 CP2K| Input file name                                                    GW.inp

 GLOBAL| Force Environment number                                              1
 GLOBAL| Basis set file name            /scratch/hpc-prf-metdyn/metdyn02_Remi/BA
 GLOBAL| Potential file name            /pc2/groups/hpc-prf-metdyn/metdyn02_Remi
 GLOBAL| MM Potential file name                                     MM_POTENTIAL
 GLOBAL| Coordinate file name                                      __STD_INPUT__
 GLOBAL| Method name                                                        CP2K
 GLOBAL| Project name                                                       MoS2
 GLOBAL| Run type                                                         ENERGY
 GLOBAL| FFT library                                                       FFTW3
 GLOBAL| Diagonalization library                                            ELPA
 GLOBAL| DGEMM library                                                      BLAS
 GLOBAL| Minimum number of eigenvectors for ELPA usage                        16
 GLOBAL| Orthonormality check for eigenvectors                          DISABLED
 GLOBAL| Matrix multiplication library                                     COSMA
 GLOBAL| All-to-all communication in single precision                          F
 GLOBAL| FFTs using library dependent lengths                                  F
 GLOBAL| Grid backend                                                       AUTO
 GLOBAL| Global print level                                               MEDIUM
 GLOBAL| MPI I/O enabled                                                       T
 GLOBAL| Total number of message passing processes                           128
 GLOBAL| Number of threads for this process                                    4
 GLOBAL| This output is from process                                           0
 GLOBAL| OpenMP stack size per thread (OMP_STACKSIZE)                    default
 GLOBAL| CPU model name                          AMD EPYC 7763 64-Core Processor
 GLOBAL| CPUID                                                              1002

 MEMORY| system memory details [Kb]
 MEMORY|                        rank 0           min           max       average
 MEMORY| MemTotal            263899264     263899260     263899264     263899262
 MEMORY| MemFree             244485068     242500704     244485068     243350847
 MEMORY| Buffers                188260         54632        204816        148583
 MEMORY| Cached                6600140       6600140       7799008       7170950
 MEMORY| Slab                  2217028       2196788       2715764       2415839
 MEMORY| SReclaimable           376624        376624        594320        451959
 MEMORY| MemLikelyFree       251650092     250786788     251650092     251122339


 *** Fundamental physical constants (SI units) ***

 *** Literature: B. J. Mohr and B. N. Taylor,
 ***             CODATA recommended values of the fundamental physical
 ***             constants: 2006, Web Version 5.1
 ***             http://physics.nist.gov/constants

 Speed of light in vacuum [m/s]                             2.99792458000000E+08
 Magnetic constant or permeability of vacuum [N/A**2]       1.25663706143592E-06
 Electric constant or permittivity of vacuum [F/m]          8.85418781762039E-12
 Planck constant (h) [J*s]                                  6.62606896000000E-34
 Planck constant (h-bar) [J*s]                              1.05457162825177E-34
 Elementary charge [C]                                      1.60217648700000E-19
 Electron mass [kg]                                         9.10938215000000E-31
 Electron g factor [ ]                                     -2.00231930436220E+00
 Proton mass [kg]                                           1.67262163700000E-27
 Fine-structure constant                                    7.29735253760000E-03
 Rydberg constant [1/m]                                     1.09737315685270E+07
 Avogadro constant [1/mol]                                  6.02214179000000E+23
 Boltzmann constant [J/K]                                   1.38065040000000E-23
 Atomic mass unit [kg]                                      1.66053878200000E-27
 Bohr radius [m]                                            5.29177208590000E-11

 *** Conversion factors ***

 [u] -> [a.u.]                                              1.82288848426455E+03
 [Angstrom] -> [Bohr] = [a.u.]                              1.88972613288564E+00
 [a.u.] = [Bohr] -> [Angstrom]                              5.29177208590000E-01
 [a.u.] -> [s]                                              2.41888432650478E-17
 [a.u.] -> [fs]                                             2.41888432650478E-02
 [a.u.] -> [J]                                              4.35974393937059E-18
 [a.u.] -> [N]                                              8.23872205491840E-08
 [a.u.] -> [K]                                              3.15774647902944E+05
 [a.u.] -> [kJ/mol]                                         2.62549961709828E+03
 [a.u.] -> [kcal/mol]                                       6.27509468713739E+02
 [a.u.] -> [Pa]                                             2.94210107994716E+13
 [a.u.] -> [bar]                                            2.94210107994716E+08
 [a.u.] -> [atm]                                            2.90362800883016E+08
 [a.u.] -> [eV]                                             2.72113838565563E+01
 [a.u.] -> [Hz]                                             6.57968392072181E+15
 [a.u.] -> [1/cm] (wave numbers)                            2.19474631370540E+05
 [a.u./Bohr**2] -> [1/cm]                                   5.14048714338585E+03
 

 CELL_TOP| Volume [angstrom^3]:                                     27000.000000
 CELL_TOP| Vector a [angstrom    30.000     0.000     0.000   |a| =    30.000000
 CELL_TOP| Vector b [angstrom     0.000    30.000     0.000   |b| =    30.000000
 CELL_TOP| Vector c [angstrom     0.000     0.000    30.000   |c| =    30.000000
 CELL_TOP| Angle (b,c), alpha [degree]:                                90.000000
 CELL_TOP| Angle (a,c), beta  [degree]:                                90.000000
 CELL_TOP| Angle (a,b), gamma [degree]:                                90.000000
 CELL_TOP| Numerically orthorhombic:                                         YES
 CELL_TOP| Periodicity                                                      NONE

 GENERATE|  Preliminary Number of Bonds generated:                             0
 GENERATE|  Achieved consistency in connectivity generation.

 CELL| Volume [angstrom^3]:                                         27000.000000
 CELL| Vector a [angstrom]:      30.000     0.000     0.000   |a| =    30.000000
 CELL| Vector b [angstrom]:       0.000    30.000     0.000   |b| =    30.000000
 CELL| Vector c [angstrom]:       0.000     0.000    30.000   |c| =    30.000000
 CELL| Angle (b,c), alpha [degree]:                                    90.000000
 CELL| Angle (a,c), beta  [degree]:                                    90.000000
 CELL| Angle (a,b), gamma [degree]:                                    90.000000
 CELL| Numerically orthorhombic:                                             YES
 CELL| Periodicity                                                          NONE

 CELL_REF| Volume [angstrom^3]:                                     27000.000000
 CELL_REF| Vector a [angstrom    30.000     0.000     0.000   |a| =    30.000000
 CELL_REF| Vector b [angstrom     0.000    30.000     0.000   |b| =    30.000000
 CELL_REF| Vector c [angstrom     0.000     0.000    30.000   |c| =    30.000000
 CELL_REF| Angle (b,c), alpha [degree]:                                90.000000
 CELL_REF| Angle (a,c), beta  [degree]:                                90.000000
 CELL_REF| Angle (a,b), gamma [degree]:                                90.000000
 CELL_REF| Numerically orthorhombic:                                         YES
 CELL_REF| Periodicity                                                      NONE

 *******************************************************************************
 *******************************************************************************
 **                                                                           **
 **     #####                         ##              ##                      **
 **    ##   ##            ##          ##              ##                      **
 **   ##     ##                       ##            ######                    **
 **   ##     ##  ##   ##  ##   #####  ##  ##   ####   ##    #####    #####    **
 **   ##     ##  ##   ##  ##  ##      ## ##   ##      ##   ##   ##  ##   ##   **
 **   ##  ## ##  ##   ##  ##  ##      ####     ###    ##   ######   ######    **
 **    ##  ###   ##   ##  ##  ##      ## ##      ##   ##   ##       ##        **
 **     #######   #####   ##   #####  ##  ##  ####    ##    #####   ##        **
 **           ##                                                    ##        **
 **                                                                           **
 **                                                ... make the atoms dance   **
 **                                                                           **
 **            Copyright (C) by CP2K developers group (2000-2025)             **
 **                      J. Chem. Phys. 152, 194103 (2020)                    **
 **                                                                           **
 *******************************************************************************

 DFT| Spin restricted Kohn-Sham (RKS) calculation                            RKS
 DFT| Multiplicity                                                             1
 DFT| Number of spin states                                                    1
 DFT| Charge                                                                   0
 DFT| Self-interaction correction (SIC)                                       NO
 DFT| Cutoffs: density                                              1.000000E-10
 DFT|          gradient                                             1.000000E-10
 DFT|          tau                                                  1.000000E-10
 DFT|          cutoff_smoothing_range                               0.000000E+00
 DFT| XC density smoothing                                                  NONE
 DFT| XC derivatives                                                          PW

 FUNCTIONAL| PBE:
 FUNCTIONAL| J.P.Perdew, K.Burke, M.Ernzerhof, Phys. Rev. Letter, vol. 77, n 18,
 FUNCTIONAL|  pp. 3865-3868, (1996)sx=0.750sc=1.000{spin unpolarized}           


 QS| Method:                                                                GAPW
 QS| Density plane wave grid type                        NON-SPHERICAL FULLSPACE
 QS| Number of grid levels:                                                    4
 QS| Density cutoff [a.u.]:                                                250.0
 QS| Multi grid cutoff [a.u.]: 1) grid level                               250.0
 QS|                           2) grid level                                83.3
 QS|                           3) grid level                                27.8
 QS|                           4) grid level                                 9.3
 QS| Grid level progression factor:                                          3.0
 QS| Relative density cutoff [a.u.]:                                        50.0
 QS| Interaction thresholds: eps_pgf_orb:                                1.0E-12
 QS|                         eps_filter_matrix:                          0.0E+00
 QS|                         eps_core_charge:                            1.0E-14
 QS|                         eps_rho_gspace:                             1.0E-12
 QS|                         eps_rho_rspace:                             1.0E-12
 QS|                         eps_gvg_rspace:                             1.0E-06
 QS|                         eps_ppl:                                    1.0E-02
 QS|                         eps_ppnl:                                   1.0E-08
 QS| GAPW|      One center basis from orbital basis primitives
 QS| GAPW|                   eps_fit:                                    1.0E-04
 QS| GAPW|                   eps_iso:                                    1.0E-12
 QS| GAPW|                   eps_svd:                                    1.0E-08
 QS| GAPW|                   eps_cpc:                                    1.0E-12
 QS| GAPW|   atom-r-grid: quadrature:                                     GC_LOG
 QS| GAPW|      atom-s-grid:  max l :                                          6
 QS| GAPW|      max_l_rho0 :                                                   2


 ATOMIC KIND INFORMATION

  1. Atomic kind: C                                     Number of atoms:       1

     Orbital Basis Set                                        aug-DZVP-MOLOPT-ae

       Number of orbital shell sets:                                           2
       Number of orbital shells:                                              10
       Number of primitive Cartesian functions:                               13
       Number of Cartesian basis functions:                                   35
       Number of spherical basis functions:                                   30
       Norm type:                                                              2

       Normalised Cartesian orbitals:

                        Set   Shell   Orbital            Exponent    Coefficient

                          1       1    2px               0.050000       0.000000
                                                         0.096935       0.005344
                                                         0.300899       0.144116
                                                         0.937529       0.673511
                                                         4.145546       1.425967
                          1       1    2py               0.050000       0.000000
                                                         0.096935       0.005344
                                                         0.300899       0.144116
                                                         0.937529       0.673511
                                                         4.145546       1.425967
                          1       1    2pz               0.050000       0.000000
                                                         0.096935       0.005344
                                                         0.300899       0.144116
                                                         0.937529       0.673511
                                                         4.145546       1.425967

                          1       2    3px               0.050000       0.000000
                                                         0.096935       0.066903
                                                         0.300899       0.082631
                                                         0.937529      -0.414500
                                                         4.145546      -0.833488
                          1       2    3py               0.050000       0.000000
                                                         0.096935       0.066903
                                                         0.300899       0.082631
                                                         0.937529      -0.414500
                                                         4.145546      -0.833488
                          1       2    3pz               0.050000       0.000000
                                                         0.096935       0.066903
                                                         0.300899       0.082631
                                                         0.937529      -0.414500
                                                         4.145546      -0.833488

                          1       3    4px               0.050000       0.052477
                                                         0.096935      -0.149600
                                                         0.300899      -0.031452
                                                         0.937529       0.106528
                                                         4.145546       0.000000
                          1       3    4py               0.050000       0.052477
                                                         0.096935      -0.149600
                                                         0.300899      -0.031452
                                                         0.937529       0.106528
                                                         4.145546       0.000000
                          1       3    4pz               0.050000       0.052477
                                                         0.096935      -0.149600
                                                         0.300899      -0.031452
                                                         0.937529       0.106528
                                                         4.145546       0.000000

                          1       4    3dx2              0.050000       0.000000
                                                         0.096935       0.001258
                                                         0.300899       0.105504
                                                         0.937529       0.830801
                                                         4.145546       0.718979
                          1       4    3dxy              0.050000       0.000000
                                                         0.096935       0.002179
                                                         0.300899       0.182739
                                                         0.937529       1.438990
                                                         4.145546       1.245309
                          1       4    3dxz              0.050000       0.000000
                                                         0.096935       0.002179
                                                         0.300899       0.182739
                                                         0.937529       1.438990
                                                         4.145546       1.245309
                          1       4    3dy2              0.050000       0.000000
                                                         0.096935       0.001258
                                                         0.300899       0.105504
                                                         0.937529       0.830801
                                                         4.145546       0.718979
                          1       4    3dyz              0.050000       0.000000
                                                         0.096935       0.002179
                                                         0.300899       0.182739
                                                         0.937529       1.438990
                                                         4.145546       1.245309
                          1       4    3dz2              0.050000       0.000000
                                                         0.096935       0.001258
                                                         0.300899       0.105504
                                                         0.937529       0.830801
                                                         4.145546       0.718979

                          1       5    4dx2              0.050000      -0.011665
                                                         0.096935       0.057456
                                                         0.300899      -0.258169
                                                         0.937529       0.000000
                                                         4.145546       0.000000
                          1       5    4dxy              0.050000      -0.020204
                                                         0.096935       0.099516
                                                         0.300899      -0.447162
                                                         0.937529       0.000000
                                                         4.145546       0.000000
                          1       5    4dxz              0.050000      -0.020204
                                                         0.096935       0.099516
                                                         0.300899      -0.447162
                                                         0.937529       0.000000
                                                         4.145546       0.000000
                          1       5    4dy2              0.050000      -0.011665
                                                         0.096935       0.057456
                                                         0.300899      -0.258169
                                                         0.937529       0.000000
                                                         4.145546       0.000000
                          1       5    4dyz              0.050000      -0.020204
                                                         0.096935       0.099516
                                                         0.300899      -0.447162
                                                         0.937529       0.000000
                                                         4.145546       0.000000
                          1       5    4dz2              0.050000      -0.011665
                                                         0.096935       0.057456
                                                         0.300899      -0.258169
                                                         0.937529       0.000000
                                                         4.145546       0.000000

                          1       6    4fx3              0.050000      -0.000180
                                                         0.096935       0.008160
                                                         0.300899       0.004002
                                                         0.937529       0.000000
                                                         4.145546       0.000000
                          1       6    4fx2y             0.050000      -0.000402
                                                         0.096935       0.018246
                                                         0.300899       0.008949
                                                         0.937529       0.000000
                                                         4.145546       0.000000
                          1       6    4fx2z             0.050000      -0.000402
                                                         0.096935       0.018246
                                                         0.300899       0.008949
                                                         0.937529       0.000000
                                                         4.145546       0.000000
                          1       6    4fxy2             0.050000      -0.000402
                                                         0.096935       0.018246
                                                         0.300899       0.008949
                                                         0.937529       0.000000
                                                         4.145546       0.000000
                          1       6    4fxyz             0.050000      -0.000696
                                                         0.096935       0.031603
                                                         0.300899       0.015500
                                                         0.937529       0.000000
                                                         4.145546       0.000000
                          1       6    4fxz2             0.050000      -0.000402
                                                         0.096935       0.018246
                                                         0.300899       0.008949
                                                         0.937529       0.000000
                                                         4.145546       0.000000
                          1       6    4fy3              0.050000      -0.000180
                                                         0.096935       0.008160
                                                         0.300899       0.004002
                                                         0.937529       0.000000
                                                         4.145546       0.000000
                          1       6    4fy2z             0.050000      -0.000402
                                                         0.096935       0.018246
                                                         0.300899       0.008949
                                                         0.937529       0.000000
                                                         4.145546       0.000000
                          1       6    4fyz2             0.050000      -0.000402
                                                         0.096935       0.018246
                                                         0.300899       0.008949
                                                         0.937529       0.000000
                                                         4.145546       0.000000
                          1       6    4fz3              0.050000      -0.000180
                                                         0.096935       0.008160
                                                         0.300899       0.004002
                                                         0.937529       0.000000
                                                         4.145546       0.000000

                          2       1    1s                0.060000       0.000000
                                                         0.161278       0.024253
                                                         0.523772      -0.029268
                                                         3.176528       0.666384
                                                        10.501907       2.110671
                                                        40.805234       2.242010
                                                       186.270922       1.801845
                                                      1238.394264      -0.490536

                          2       2    2s                0.060000       0.000000
                                                         0.161278       0.080328
                                                         0.523772       0.279468
                                                         3.176528      -0.079506
                                                        10.501907      -0.033488
                                                        40.805234       0.350132
                                                       186.270922      -0.108171
                                                      1238.394264       0.147138

                          2       3    3s                0.060000       0.000000
                                                         0.161278       0.225687
                                                         0.523772      -0.382710
                                                         3.176528      -0.308205
                                                        10.501907      -0.974990
                                                        40.805234      -2.174132
                                                       186.270922       1.755878
                                                      1238.394264     -12.484315

                          2       4    4s                0.060000      -0.055653
                                                         0.161278      -0.019607
                                                         0.523772       0.500289
                                                         3.176528       0.067234
                                                        10.501907       0.000000
                                                        40.805234       0.000000
                                                       186.270922       0.000000
                                                      1238.394264       0.000000

     RI Auxiliary Basis Set             RI_aug-DZVP-MOLOPT-ae_N_RI_102_s_p_d_f_g

       Number of orbital shell sets:                                          24
       Number of orbital shells:                                              24
       Number of primitive Cartesian functions:                               24
       Number of Cartesian basis functions:                                  137
       Number of spherical basis functions:                                  102
       Norm type:                                                              2

       Normalised Cartesian orbitals:

                        Set   Shell   Orbital            Exponent    Coefficient

                          1       1    1s                0.176773       0.194299

                          2       1    8px               0.196807       0.186849
                          2       1    8py               0.196807       0.186849
                          2       1    8pz               0.196807       0.186849

                          3       1   18fx3              0.238963       0.058776
                          3       1   18fx2y             0.238963       0.131427
                          3       1   18fx2z             0.238963       0.131427
                          3       1   18fxy2             0.238963       0.131427
                          3       1   18fxyz             0.238963       0.227638
                          3       1   18fxz2             0.238963       0.131427
                          3       1   18fy3              0.238963       0.058776
                          3       1   18fy2z             0.238963       0.131427
                          3       1   18fyz2             0.238963       0.131427
                          3       1   18fz3              0.238963       0.058776

                          4       1    2s                0.282769       0.276365

                          5       1   13dx2              0.310173       0.212186
                          5       1   13dxy              0.310173       0.367516
                          5       1   13dxz              0.310173       0.367516
                          5       1   13dy2              0.310173       0.212186
                          5       1   13dyz              0.310173       0.367516
                          5       1   13dz2              0.310173       0.212186

                          6       1   22gx4              0.415454       0.099397
                          6       1   22gx3y             0.415454       0.262980
                          6       1   22gx3z             0.415454       0.262980
                          6       1   22gx2y2            0.415454       0.339506
                          6       1   22gx2yz            0.415454       0.588042
                          6       1   22gx2z2            0.415454       0.339506
                          6       1   22gxy3             0.415454       0.262980
                          6       1   22gxy2z            0.415454       0.588042
                          6       1   22gxyz2            0.415454       0.588042
                          6       1   22gxz3             0.415454       0.262980
                          6       1   22gy4              0.415454       0.099397
                          6       1   22gy3z             0.415454       0.262980
                          6       1   22gy2z2            0.415454       0.339506
                          6       1   22gyz3             0.415454       0.262980
                          6       1   22gz4              0.415454       0.099397

                          7       1   14dx2              0.475521       0.448184
                          7       1   14dxy              0.475521       0.776278
                          7       1   14dxz              0.475521       0.776278
                          7       1   14dy2              0.475521       0.448184
                          7       1   14dyz              0.475521       0.776278
                          7       1   14dz2              0.475521       0.448184

                          8       1    9px               0.478157       0.566765
                          8       1    9py               0.478157       0.566765
                          8       1    9pz               0.478157       0.566765

                          9       1   19fx3              0.615924       0.494755
                          9       1   19fx2y             0.615924       1.106306
                          9       1   19fx2z             0.615924       1.106306
                          9       1   19fxy2             0.615924       1.106306
                          9       1   19fxyz             0.615924       1.916178
                          9       1   19fxz2             0.615924       1.106306
                          9       1   19fy3              0.615924       0.494755
                          9       1   19fy2z             0.615924       1.106306
                          9       1   19fyz2             0.615924       1.106306
                          9       1   19fz3              0.615924       0.494755

                         10       1   23gx4              0.774118       0.550370
                         10       1   23gx3y             0.774118       1.456141
                         10       1   23gx3z             0.774118       1.456141
                         10       1   23gx2y2            0.774118       1.879871
                         10       1   23gx2yz            0.774118       3.256031
                         10       1   23gx2z2            0.774118       1.879871
                         10       1   23gxy3             0.774118       1.456141
                         10       1   23gxy2z            0.774118       3.256031
                         10       1   23gxyz2            0.774118       3.256031
                         10       1   23gxz3             0.774118       1.456141
                         10       1   23gy4              0.774118       0.550370
                         10       1   23gy3z             0.774118       1.456141
                         10       1   23gy2z2            0.774118       1.879871
                         10       1   23gyz3             0.774118       1.456141
                         10       1   23gz4              0.774118       0.550370

                         11       1    3s                0.856620       0.634602

                         12       1   15dx2              0.960745       1.534525
                         12       1   15dxy              0.960745       2.657876
                         12       1   15dxz              0.960745       2.657876
                         12       1   15dy2              0.960745       1.534525
                         12       1   15dyz              0.960745       2.657876
                         12       1   15dz2              0.960745       1.534525

                         13       1   10px               1.162821       1.721200
                         13       1   10py               1.162821       1.721200
                         13       1   10pz               1.162821       1.721200

                         14       1   20fx3              1.214659       2.280218
                         14       1   20fx2y             1.214659       5.098724
                         14       1   20fx2z             1.214659       5.098724
                         14       1   20fxy2             1.214659       5.098724
                         14       1   20fxyz             1.214659       8.831248
                         14       1   20fxz2             1.214659       5.098724
                         14       1   20fy3              1.214659       2.280218
                         14       1   20fy2z             1.214659       5.098724
                         14       1   20fyz2             1.214659       5.098724
                         14       1   20fz3              1.214659       2.280218

                         15       1   24gx4              1.356232       2.572490
                         15       1   24gx3y             1.356232       6.806169
                         15       1   24gx3z             1.356232       6.806169
                         15       1   24gx2y2            1.356232       8.786727
                         15       1   24gx2yz            1.356232      15.219057
                         15       1   24gx2z2            1.356232       8.786727
                         15       1   24gxy3             1.356232       6.806169
                         15       1   24gxy2z            1.356232      15.219057
                         15       1   24gxyz2            1.356232      15.219057
                         15       1   24gxz3             1.356232       6.806169
                         15       1   24gy4              1.356232       2.572490
                         15       1   24gy3z             1.356232       6.806169
                         15       1   24gy2z2            1.356232       8.786727
                         15       1   24gyz3             1.356232       6.806169
                         15       1   24gz4              1.356232       2.572490

                         16       1   16dx2              1.921522       5.161655
                         16       1   16dxy              1.921522       8.940249
                         16       1   16dxz              1.921522       8.940249
                         16       1   16dy2              1.921522       5.161655
                         16       1   16dyz              1.921522       8.940249
                         16       1   16dz2              1.921522       5.161655

                         17       1   21fx3              2.377719      10.335118
                         17       1   21fx2y             2.377719      23.110027
                         17       1   21fx2z             2.377719      23.110027
                         17       1   21fxy2             2.377719      23.110027
                         17       1   21fxyz             2.377719      40.027741
                         17       1   21fxz2             2.377719      23.110027
                         17       1   21fy3              2.377719      10.335118
                         17       1   21fy2z             2.377719      23.110027
                         17       1   21fyz2             2.377719      23.110027
                         17       1   21fz3              2.377719      10.335118

                         18       1    4s                2.987161       1.619400

                         19       1   17dx2              4.345203      21.524201
                         19       1   17dxy              4.345203      37.281010
                         19       1   17dxz              4.345203      37.281010
                         19       1   17dy2              4.345203      21.524201
                         19       1   17dyz              4.345203      37.281010
                         19       1   17dz2              4.345203      21.524201

                         20       1   11px               4.473684       9.274098
                         20       1   11py               4.473684       9.274098
                         20       1   11pz               4.473684       9.274098

                         21       1    5s                9.158863       3.752246

                         22       1   12px              16.195512      46.310923
                         22       1   12py              16.195512      46.310923
                         22       1   12pz              16.195512      46.310923

                         23       1    6s               27.492688       8.557029

                         24       1    7s               82.168156      19.450813

       Atomic covalent radius [Angstrom]:                                  0.770

       Atomic van der Waals radius [Angstrom]:                             1.700

     The atoms of this atomic kind are PAW atoms (GAPW):
       Hard Gaussian function radius:                                      1.512
       Rho0 radius:                                                        1.512
       Maximum GTO radius used for PAW projector construction:            24.566

     GAPW Soft Basis Set                                 aug-DZVP-MOLOPT-ae_soft

       Number of orbital shell sets:                                           2
       Number of orbital shells:                                              10
       Number of primitive Cartesian functions:                                9
       Number of Cartesian basis functions:                                   35
       Number of spherical basis functions:                                   30
       Norm type:                                                              2

       Normalised Cartesian orbitals:

                        Set   Shell   Orbital            Exponent    Coefficient

                          1       1    2px               0.050000       0.000000
                                                         0.096935       0.005344
                                                         0.300899       0.144116
                                                         0.937529       0.673511
                                                         4.145546       1.425967
                          1       1    2py               0.050000       0.000000
                                                         0.096935       0.005344
                                                         0.300899       0.144116
                                                         0.937529       0.673511
                                                         4.145546       1.425967
                          1       1    2pz               0.050000       0.000000
                                                         0.096935       0.005344
                                                         0.300899       0.144116
                                                         0.937529       0.673511
                                                         4.145546       1.425967

                          1       2    3px               0.050000       0.000000
                                                         0.096935       0.066903
                                                         0.300899       0.082631
                                                         0.937529      -0.414500
                                                         4.145546      -0.833488
                          1       2    3py               0.050000       0.000000
                                                         0.096935       0.066903
                                                         0.300899       0.082631
                                                         0.937529      -0.414500
                                                         4.145546      -0.833488
                          1       2    3pz               0.050000       0.000000
                                                         0.096935       0.066903
                                                         0.300899       0.082631
                                                         0.937529      -0.414500
                                                         4.145546      -0.833488

                          1       3    4px               0.050000       0.052477
                                                         0.096935      -0.149600
                                                         0.300899      -0.031452
                                                         0.937529       0.106528
                                                         4.145546       0.000000
                          1       3    4py               0.050000       0.052477
                                                         0.096935      -0.149600
                                                         0.300899      -0.031452
                                                         0.937529       0.106528
                                                         4.145546       0.000000
                          1       3    4pz               0.050000       0.052477
                                                         0.096935      -0.149600
                                                         0.300899      -0.031452
                                                         0.937529       0.106528
                                                         4.145546       0.000000

                          1       4    3dx2              0.050000       0.000000
                                                         0.096935       0.001258
                                                         0.300899       0.105504
                                                         0.937529       0.830801
                                                         4.145546       0.718979
                          1       4    3dxy              0.050000       0.000000
                                                         0.096935       0.002179
                                                         0.300899       0.182739
                                                         0.937529       1.438990
                                                         4.145546       1.245309
                          1       4    3dxz              0.050000       0.000000
                                                         0.096935       0.002179
                                                         0.300899       0.182739
                                                         0.937529       1.438990
                                                         4.145546       1.245309
                          1       4    3dy2              0.050000       0.000000
                                                         0.096935       0.001258
                                                         0.300899       0.105504
                                                         0.937529       0.830801
                                                         4.145546       0.718979
                          1       4    3dyz              0.050000       0.000000
                                                         0.096935       0.002179
                                                         0.300899       0.182739
                                                         0.937529       1.438990
                                                         4.145546       1.245309
                          1       4    3dz2              0.050000       0.000000
                                                         0.096935       0.001258
                                                         0.300899       0.105504
                                                         0.937529       0.830801
                                                         4.145546       0.718979

                          1       5    4dx2              0.050000      -0.011665
                                                         0.096935       0.057456
                                                         0.300899      -0.258169
                                                         0.937529       0.000000
                                                         4.145546       0.000000
                          1       5    4dxy              0.050000      -0.020204
                                                         0.096935       0.099516
                                                         0.300899      -0.447162
                                                         0.937529       0.000000
                                                         4.145546       0.000000
                          1       5    4dxz              0.050000      -0.020204
                                                         0.096935       0.099516
                                                         0.300899      -0.447162
                                                         0.937529       0.000000
                                                         4.145546       0.000000
                          1       5    4dy2              0.050000      -0.011665
                                                         0.096935       0.057456
                                                         0.300899      -0.258169
                                                         0.937529       0.000000
                                                         4.145546       0.000000
                          1       5    4dyz              0.050000      -0.020204
                                                         0.096935       0.099516
                                                         0.300899      -0.447162
                                                         0.937529       0.000000
                                                         4.145546       0.000000
                          1       5    4dz2              0.050000      -0.011665
                                                         0.096935       0.057456
                                                         0.300899      -0.258169
                                                         0.937529       0.000000
                                                         4.145546       0.000000

                          1       6    4fx3              0.050000      -0.000180
                                                         0.096935       0.008160
                                                         0.300899       0.004002
                                                         0.937529       0.000000
                                                         4.145546       0.000000
                          1       6    4fx2y             0.050000      -0.000402
                                                         0.096935       0.018246
                                                         0.300899       0.008949
                                                         0.937529       0.000000
                                                         4.145546       0.000000
                          1       6    4fx2z             0.050000      -0.000402
                                                         0.096935       0.018246
                                                         0.300899       0.008949
                                                         0.937529       0.000000
                                                         4.145546       0.000000
                          1       6    4fxy2             0.050000      -0.000402
                                                         0.096935       0.018246
                                                         0.300899       0.008949
                                                         0.937529       0.000000
                                                         4.145546       0.000000
                          1       6    4fxyz             0.050000      -0.000696
                                                         0.096935       0.031603
                                                         0.300899       0.015500
                                                         0.937529       0.000000
                                                         4.145546       0.000000
                          1       6    4fxz2             0.050000      -0.000402
                                                         0.096935       0.018246
                                                         0.300899       0.008949
                                                         0.937529       0.000000
                                                         4.145546       0.000000
                          1       6    4fy3              0.050000      -0.000180
                                                         0.096935       0.008160
                                                         0.300899       0.004002
                                                         0.937529       0.000000
                                                         4.145546       0.000000
                          1       6    4fy2z             0.050000      -0.000402
                                                         0.096935       0.018246
                                                         0.300899       0.008949
                                                         0.937529       0.000000
                                                         4.145546       0.000000
                          1       6    4fyz2             0.050000      -0.000402
                                                         0.096935       0.018246
                                                         0.300899       0.008949
                                                         0.937529       0.000000
                                                         4.145546       0.000000
                          1       6    4fz3              0.050000      -0.000180
                                                         0.096935       0.008160
                                                         0.300899       0.004002
                                                         0.937529       0.000000
                                                         4.145546       0.000000

                          2       1    1s                0.060000       0.000000
                                                         0.161278       0.024253
                                                         0.523772      -0.029268
                                                         3.176528       0.666384

                          2       2    2s                0.060000       0.000000
                                                         0.161278       0.080328
                                                         0.523772       0.279468
                                                         3.176528      -0.079506

                          2       3    3s                0.060000       0.000000
                                                         0.161278       0.225687
                                                         0.523772      -0.382710
                                                         3.176528      -0.308205

                          2       4    4s                0.060000      -0.055653
                                                         0.161278      -0.019607
                                                         0.523772       0.500289
                                                         3.176528       0.067234

     AE Potential information for                                            ALL

       Description:                                       All-electron potential
                                          Krack, Parrinello, PCCP 2, 2105 (2000)

       Gaussian exponent of the core charge distribution:               4.109048
       Electronic configuration (s p d ...):                           4   2   0

  2. Atomic kind: N                                     Number of atoms:       1

     Orbital Basis Set                                        aug-DZVP-MOLOPT-ae

       Number of orbital shell sets:                                           2
       Number of orbital shells:                                              10
       Number of primitive Cartesian functions:                               12
       Number of Cartesian basis functions:                                   35
       Number of spherical basis functions:                                   30
       Norm type:                                                              2

       Normalised Cartesian orbitals:

                        Set   Shell   Orbital            Exponent    Coefficient

                          1       1    2s                0.060000      -0.096639
                                                         0.166384       0.037538
                                                         0.634073      -0.055669
                                                         2.325354       0.000000
                                                        12.268174       0.000000

                          1       2    3px               0.060000       0.000000
                                                         0.166384      -0.031930
                                                         0.634073      -0.492962
                                                         2.325354      -1.380142
                                                        12.268174      -2.349358
                          1       2    3py               0.060000       0.000000
                                                         0.166384      -0.031930
                                                         0.634073      -0.492962
                                                         2.325354      -1.380142
                                                        12.268174      -2.349358
                          1       2    3pz               0.060000       0.000000
                                                         0.166384      -0.031930
                                                         0.634073      -0.492962
                                                         2.325354      -1.380142
                                                        12.268174      -2.349358

                          1       3    4px               0.060000       0.000000
                                                         0.166384       0.169694
                                                         0.634073      -0.220766
                                                         2.325354      -0.809234
                                                        12.268174      -0.998521
                          1       3    4py               0.060000       0.000000
                                                         0.166384       0.169694
                                                         0.634073      -0.220766
                                                         2.325354      -0.809234
                                                        12.268174      -0.998521
                          1       3    4pz               0.060000       0.000000
                                                         0.166384       0.169694
                                                         0.634073      -0.220766
                                                         2.325354      -0.809234
                                                        12.268174      -0.998521

                          1       4    5px               0.060000       0.028594
                                                         0.166384       0.063224
                                                         0.634073      -0.046183
                                                         2.325354       0.000000
                                                        12.268174       0.000000
                          1       4    5py               0.060000       0.028594
                                                         0.166384       0.063224
                                                         0.634073      -0.046183
                                                         2.325354       0.000000
                                                        12.268174       0.000000
                          1       4    5pz               0.060000       0.028594
                                                         0.166384       0.063224
                                                         0.634073      -0.046183
                                                         2.325354       0.000000
                                                        12.268174       0.000000

                          1       5    4dx2              0.060000       0.000000
                                                         0.166384       0.019402
                                                         0.634073       0.555487
                                                         2.325354       1.255926
                                                        12.268174      -0.426175
                          1       5    4dxy              0.060000       0.000000
                                                         0.166384       0.033606
                                                         0.634073       0.962132
                                                         2.325354       2.175327
                                                        12.268174      -0.738157
                          1       5    4dxz              0.060000       0.000000
                                                         0.166384       0.033606
                                                         0.634073       0.962132
                                                         2.325354       2.175327
                                                        12.268174      -0.738157
                          1       5    4dy2              0.060000       0.000000
                                                         0.166384       0.019402
                                                         0.634073       0.555487
                                                         2.325354       1.255926
                                                        12.268174      -0.426175
                          1       5    4dyz              0.060000       0.000000
                                                         0.166384       0.033606
                                                         0.634073       0.962132
                                                         2.325354       2.175327
                                                        12.268174      -0.738157
                          1       5    4dz2              0.060000       0.000000
                                                         0.166384       0.019402
                                                         0.634073       0.555487
                                                         2.325354       1.255926
                                                        12.268174      -0.426175

                          1       6    5dx2              0.060000      -0.008089
                                                         0.166384      -0.027907
                                                         0.634073      -0.057221
                                                         2.325354       0.000000
                                                        12.268174       0.000000
                          1       6    5dxy              0.060000      -0.014011
                                                         0.166384      -0.048336
                                                         0.634073      -0.099109
                                                         2.325354       0.000000
                                                        12.268174       0.000000
                          1       6    5dxz              0.060000      -0.014011
                                                         0.166384      -0.048336
                                                         0.634073      -0.099109
                                                         2.325354       0.000000
                                                        12.268174       0.000000
                          1       6    5dy2              0.060000      -0.008089
                                                         0.166384      -0.027907
                                                         0.634073      -0.057221
                                                         2.325354       0.000000
                                                        12.268174       0.000000
                          1       6    5dyz              0.060000      -0.014011
                                                         0.166384      -0.048336
                                                         0.634073      -0.099109
                                                         2.325354       0.000000
                                                        12.268174       0.000000
                          1       6    5dz2              0.060000      -0.008089
                                                         0.166384      -0.027907
                                                         0.634073      -0.057221
                                                         2.325354       0.000000
                                                        12.268174       0.000000

                          1       7    5fx3              0.060000       0.000067
                                                         0.166384       0.012645
                                                         0.634073       0.328269
                                                         2.325354       1.687172
                                                        12.268174       0.000000
                          1       7    5fx2y             0.060000       0.000150
                                                         0.166384       0.028275
                                                         0.634073       0.734031
                                                         2.325354       3.772631
                                                        12.268174       0.000000
                          1       7    5fx2z             0.060000       0.000150
                                                         0.166384       0.028275
                                                         0.634073       0.734031
                                                         2.325354       3.772631
                                                        12.268174       0.000000
                          1       7    5fxy2             0.060000       0.000150
                                                         0.166384       0.028275
                                                         0.634073       0.734031
                                                         2.325354       3.772631
                                                        12.268174       0.000000
                          1       7    5fxyz             0.060000       0.000260
                                                         0.166384       0.048973
                                                         0.634073       1.271379
                                                         2.325354       6.534389
                                                        12.268174       0.000000
                          1       7    5fxz2             0.060000       0.000150
                                                         0.166384       0.028275
                                                         0.634073       0.734031
                                                         2.325354       3.772631
                                                        12.268174       0.000000
                          1       7    5fy3              0.060000       0.000067
                                                         0.166384       0.012645
                                                         0.634073       0.328269
                                                         2.325354       1.687172
                                                        12.268174       0.000000
                          1       7    5fy2z             0.060000       0.000150
                                                         0.166384       0.028275
                                                         0.634073       0.734031
                                                         2.325354       3.772631
                                                        12.268174       0.000000
                          1       7    5fyz2             0.060000       0.000150
                                                         0.166384       0.028275
                                                         0.634073       0.734031
                                                         2.325354       3.772631
                                                        12.268174       0.000000
                          1       7    5fz3              0.060000       0.000067
                                                         0.166384       0.012645
                                                         0.634073       0.328269
                                                         2.325354       1.687172
                                                        12.268174       0.000000

                          2       1    1s                0.191012      -0.002582
                                                         0.666629       0.012902
                                                         4.403487      -0.858326
                                                        14.651380      -2.749170
                                                        57.692026      -2.958222
                                                       257.997554      -1.897300
                                                      1713.054433      -1.166486

                          2       2    2s                0.191012       0.079194
                                                         0.666629       0.351708
                                                         4.403487       0.009155
                                                        14.651380       0.000424
                                                        57.692026       0.772862
                                                       257.997554      -0.458166
                                                      1713.054433       0.520658

                          2       3    3s                0.191012       0.300064
                                                         0.666629      -0.436823
                                                         4.403487      -0.072962
                                                        14.651380      -0.095292
                                                        57.692026      -1.262420
                                                       257.997554       0.741400
                                                      1713.054433      -0.270364

     RI Auxiliary Basis Set             RI_aug-DZVP-MOLOPT-ae_N_RI_089_s_p_d_f_g

       Number of orbital shell sets:                                          23
       Number of orbital shells:                                              23
       Number of primitive Cartesian functions:                               23
       Number of Cartesian basis functions:                                  115
       Number of spherical basis functions:                                   89
       Norm type:                                                              2

       Normalised Cartesian orbitals:

                        Set   Shell   Orbital            Exponent    Coefficient

                          1       1    8px               0.212834       0.206058
                          1       1    8py               0.212834       0.206058
                          1       1    8pz               0.212834       0.206058

                          2       1    1s                0.308364       0.294923

                          3       1   14dx2              0.364281       0.281141
                          3       1   14dxy              0.364281       0.486951
                          3       1   14dxz              0.364281       0.486951
                          3       1   14dy2              0.364281       0.281141
                          3       1   14dyz              0.364281       0.486951
                          3       1   14dz2              0.364281       0.281141

                          4       1   19fx3              0.368644       0.155891
                          4       1   19fx2y             0.368644       0.348582
                          4       1   19fx2z             0.368644       0.348582
                          4       1   19fxy2             0.368644       0.348582
                          4       1   19fxyz             0.368644       0.603762
                          4       1   19fxz2             0.368644       0.348582
                          4       1   19fy3              0.368644       0.155891
                          4       1   19fy2z             0.368644       0.348582
                          4       1   19fyz2             0.368644       0.348582
                          4       1   19fz3              0.368644       0.155891

                          5       1    2s                0.390066       0.351774

                          6       1   15dx2              0.551710       0.581304
                          6       1   15dxy              0.551710       1.006848
                          6       1   15dxz              0.551710       1.006848
                          6       1   15dy2              0.551710       0.581304
                          6       1   15dyz              0.551710       1.006848
                          6       1   15dz2              0.551710       0.581304

                          7       1    9px               0.581839       0.724341
                          7       1    9py               0.581839       0.724341
                          7       1    9pz               0.581839       0.724341

                          8       1   22gx4              0.707666       0.429996
                          8       1   22gx3y             0.707666       1.137662
                          8       1   22gx3z             0.707666       1.137662
                          8       1   22gx2y2            0.707666       1.468715
                          8       1   22gx2yz            0.707666       2.543889
                          8       1   22gx2z2            0.707666       1.468715
                          8       1   22gxy3             0.707666       1.137662
                          8       1   22gxy2z            0.707666       2.543889
                          8       1   22gxyz2            0.707666       2.543889
                          8       1   22gxz3             0.707666       1.137662
                          8       1   22gy4              0.707666       0.429996
                          8       1   22gy3z             0.707666       1.137662
                          8       1   22gy2z2            0.707666       1.468715
                          8       1   22gyz3             0.707666       1.137662
                          8       1   22gz4              0.707666       0.429996

                          9       1   20fx3              0.985610       1.424921
                          9       1   20fx2y             0.985610       3.186221
                          9       1   20fx2z             0.985610       3.186221
                          9       1   20fxy2             0.985610       3.186221
                          9       1   20fxyz             0.985610       5.518696
                          9       1   20fxz2             0.985610       3.186221
                          9       1   20fy3              0.985610       1.424921
                          9       1   20fy2z             0.985610       3.186221
                          9       1   20fyz2             0.985610       3.186221
                          9       1   20fz3              0.985610       1.424921

                         10       1    3s                1.243681       0.839348

                         11       1   16dx2              1.360208       2.819802
                         11       1   16dxy              1.360208       4.884040
                         11       1   16dxz              1.360208       4.884040
                         11       1   16dy2              1.360208       2.819802
                         11       1   16dyz              1.360208       4.884040
                         11       1   16dz2              1.360208       2.819802

[...]

 A. Marek, V. Blum, R. Johanni, V. Havu, B. Lang, T. Auckenthaler, A. Heinecke, 
 H. Bungartz, H. Lederer.
 J. Phys. Condens. Matter 26, 213201 (2014).
 The ELPA library: scalable parallel eigenvalue solutions for electronic 
 structure theory and computational science.
 https://doi.org/10.1088/0953-8984/26/21/213201

 M. Guidon, J. Hutter, J. VandeVondele.
 J. Chem. Theory Comput. 5, 3010-3021 (2009).
 Robust Periodic Hartree-Fock Exchange for Large-Scale Simulations Using 
 Gaussian Basis Sets.
 https://doi.org/10.1021/ct900494g

 M. Guidon, F. Schiffmann, J. Hutter, J. VandeVondele.
 J. Chem. Phys. 128, 214104 (2008).
 Ab initio molecular dynamics using hybrid density functionals.
 https://doi.org/10.1063/1.2931945

 L. Genovese, T. Deutsch, S. Goedecker.
 J. Chem. Phys. 127, 054704 (2007).
 Efficient and accurate three-dimensional Poisson solver for surface problems.
 https://doi.org/10.1063/1.2754685

 J. VandeVondele, J. Hutter.
 J. Chem. Phys. 127, 114105 (2007).
 Gaussian basis sets for accurate calculations on molecular systems in gas and 
 condensed phases.
 https://doi.org/10.1063/1.2770708

 L. Genovese, T. Deutsch, A. Neelov, S. Goedecker, G. Beylkin.
 J. Chem. Phys. 125, 074105 (2006).
 Efficient solution of Poisson's equation with free boundary conditions.
 https://doi.org/10.1063/1.2335442

 M. Iannuzzi, T. Chassaing, T. Wallman, J. Hutter.
 CHIMIA 59, 499-503 (2005).
 Ground and excited state density functional calculations with the Gaussian and 
 augmented-plane-wave method.
 https://doi.org/10.2533/000942905777676164

 M. Frigo, S. G. Johnson.
 Proc. IEEE 93, 216-231 (2005).
 The design and implementation of FFTW3.
 https://doi.org/10.1109/JPROC.2004.840301

 R. L. Martin.
 J. Chem. Phys. 118, 4775-4777 (2003).
 Natural transition orbitals.
 https://doi.org/10.1063/1.1558471

 M. Krack, M. Parrinello.
 Phys. Chem. Chem. Phys. 2, 2105-2112 (2000).
 All-electron ab-initio molecular dynamics.
 https://doi.org/10.1039/b001167n

 G. Lippert, J. Hutter, M. Parrinello.
 Theor. Chem. Acc. 103, 124-140 (1999).
 The Gaussian and augmented-plane-wave density functional method for ab initio 
 molecular dynamics simulations.
 https://doi.org/10.1007/s002140050523

 J. P. Perdew, K. Burke, M. Ernzerhof.
 Phys. Rev. Lett. 77, 3865-3868 (1996).
 Generalized gradient approximation made simple.
 https://doi.org/10.1103/PhysRevLett.77.3865


 -------------------------------------------------------------------------------
 -                                                                             -
 -                                T I M I N G                                  -
 -                                                                             -
 -------------------------------------------------------------------------------
 SUBROUTINE                       CALLS  ASD         SELF TIME        TOTAL TIME
                                MAXIMUM       AVERAGE  MAXIMUM  AVERAGE  MAXIMUM
 CP2K                                 1  1.0    0.037    0.068  472.450  472.457
 qs_energies                          1  2.0    0.003    0.007  472.043  472.051
 qs_energies_properties               1  3.0    0.000    0.001  315.071  315.078
 tddfpt                               1  4.0    0.000    0.000  315.071  315.078
 tddfpt_energies                      1  5.0    0.001    0.008  315.022  315.028
 tddfpt_davidson_solver               1  6.0    0.001    0.001  313.817  313.822
 tddfpt_compute_Aop_evects            8  7.0    0.000    0.000  312.811  312.817
 fhxc_kernel                          8  8.0    0.009    0.018  285.491  285.496
 fft_wrap_pw1pw2                   4663 11.0    0.100    0.131  155.338  161.973
 fft_wrap_pw1pw2_250               3283 12.1    4.637    5.757  149.536  157.335
 scf_env_do_scf                       1  3.0    0.000    0.000  156.171  156.178
 scf_env_do_scf_inner_loop           69  4.0    0.003    0.006  156.170  156.177
 fft3d_ps                          4663 13.0   31.406   38.287  136.043  144.712
 pw_poisson_solve                   229  9.4    1.562    1.996  131.804  134.186
 tddfpt_apply_coulomb               160  9.0    0.003    0.004  124.687  126.936
 qs_ks_update_qs_env                 69  5.0    0.000    0.001  119.451  119.500
 rebuild_ks_matrix                   69  6.0    0.000    0.000  119.445  119.495
 qs_ks_build_kohn_sham_matrix        69  7.0    0.014    0.023  119.445  119.494
 mp_alltoall_z22v                  4663 15.0   97.333  103.170   97.333  103.170
 ps_wavelet_solve                   229 10.4   20.154   25.394   90.787   94.061
 qs_rho_update_rho_low              231  7.8    0.006    0.010   80.900   80.904
 calculate_rho_elec                 231  8.8    0.451    0.570   79.937   79.943
 xc_pw_derive                      1377 11.0    0.012    0.014   64.128   66.054
 x_to_yz                           2134 13.8    3.488    5.575   55.244   63.642
 transfer_pw2rs                    1146 10.9    0.022    0.031   57.058   57.795
 tddfpt_apply_xc_analytic           160  9.0    0.356    0.452   56.095   56.949
 yz_to_x                           2069 14.4    3.137    3.518   48.674   51.824
 mp_waitany                       53398 12.8   38.952   51.648   38.952   51.648
 mp_alltoall_d54                    229 11.4   33.936   50.269   33.936   50.269
 density_rs2pw                      231  9.8    0.012    0.019   47.402   50.078
 integrate_v_rspace                 229  9.0    0.006    0.009   44.832   46.307
 potential_pw2rs                    229 10.0    0.035    0.038   44.704   45.192
 xc_pw_divergence                   229 10.7    0.006    0.007   42.302   43.127
 transfer_pw2rs_250                 459 11.7    5.908    6.410   39.452   41.797
 integrate_four_center              389  9.8   14.930   30.215   41.253   41.324
 mp_alltoall_d45                    230 11.4   37.322   40.133   37.322   40.133
 mp_sync                           2071 11.5   20.016   34.816   20.016   34.816
 xc_calc_2nd_deriv_analytical      1440 10.1    1.918    2.540   32.815   33.159
 grid_collocate_task_list           231  9.8   30.285   32.159   30.285   32.159
 integrate_vhg0_rspace              229  9.4    0.181    0.228   31.192   31.486
 transfer_rs2pw                    1155 10.8    0.038    0.045   28.945   30.265
 prepare_gapw_den                   230  8.7    0.004    0.004   28.934   30.114
 tddfpt_apply_hfx                     8  8.0    0.002    0.003   27.086   27.087
 tddft_hfx_matrix                   320  9.0    0.004    0.018   25.990   26.039
 mp_isend_dm3                      9206 12.8   11.516   25.572   11.516   25.572
 qs_vxc_create                       69  8.0    0.002    0.004   25.377   25.384
 xc_vxc_pw_create                    69  9.0    0.235    0.331   25.375   25.382
 put_rho0_on_grid                   230  9.7    0.465    0.590   21.354   22.535
 mp_sum_d                          3880  7.8    9.585   20.269    9.585   20.269
 transfer_rs2pw_250                 462 11.7    6.090    6.607   16.635   18.473
 mp_irecv_dm3                      9206 12.8    0.497   18.225    0.497   18.225
 sum_up_and_integrate                69  8.0    0.001    0.001   15.340   15.635
 mp_waitall_1                    319450 13.3   10.606   15.593   10.606   15.593
 hfx_ks_matrix                       69  8.0    0.002    0.003   15.269   15.298
 xc_rho_set_and_dset_create          70 10.0    0.265    0.389   12.110   13.119
 transfer_pw2rs_90                  229 12.0    0.940    1.200    7.943   11.196
 transfer_pw2rs_30                  229 12.0    2.555    2.646    8.678   10.424
 fft_wrap_pw1pw2_90                 460 11.9    0.128    0.240    4.544    9.870
 mp_alltoall_d11v                 14304 11.6    7.189    9.662    7.189    9.662
 gspace_mixing                       68  5.0    0.133    0.168    9.120    9.122
 transfer_rs2pw_90                  231 11.8    1.067    1.383    6.651    7.849
 cp2k_distribution_to_z_slices      229 10.4    1.267    1.640    6.542    7.534
 gaVxcgb_GC                         916  9.7    0.059    7.518    0.059    7.518
 calculate_rho_atom                 920  9.7    1.202    7.441    1.202    7.441
 pw_gather_p                       2300 13.3    4.931    7.378    4.931    7.378
 calculate_xc_2nd_deriv_atom        160  9.0    0.059    1.354    0.135    7.096
 pw_derive                         2064 11.8    6.076    6.791    6.076    6.791
 mp_sum_dv                        16642  8.9    6.538    6.704    6.538    6.704
 integrate_four_center_main         389 10.8    0.089    2.616    0.380    6.593
 integrate_four_center_bin        49086 11.8    0.291    6.492    0.291    6.492
 rs_grid_zero                      1148 11.9    5.532    5.776    5.532    5.776
 pw_scatter_p                      2363 12.8    4.814    5.500    4.814    5.500
 Vh_1c_gg_integrals                 229  9.4    0.027    0.874    1.747    5.473
 mp_sum_dm                         2862  9.9    3.530    5.452    3.530    5.452
 broyden_mixing                      68  6.0    4.910    4.996    5.233    5.252
 pw_integral_ab_c1d_c1d_gs          229 10.4    0.845    0.969    2.136    5.095
 transfer_rs2pw_30                  231 11.8    1.530    1.706    4.611    5.076
 pw_copy                           3120 11.0    4.410    4.906    4.410    4.906
 mp_sendrecv_dv                   58674 12.8    3.724    4.226    3.724    4.226
 calc_screening_functions             1 10.0    3.515    3.594    3.984    4.056
 pw_poisson_set                     230 10.4    0.006    0.007    3.788    3.902
 pw_copy_to_array                  2300 13.3    2.743    3.552    2.743    3.552
 calculate_vxc_atom                  69  8.0    0.033    0.303    2.707    2.709
 cp_dbcsr_sm_fm_multiply           1006  8.6    0.011    0.014    2.202    2.619
 pw_axpy                           2458 10.8    2.097    2.498    2.097    2.498
 pw_copy_from_array                2363 12.8    1.920    2.417    1.920    2.417
 pw_zero                           2500 10.6    1.912    2.332    1.912    2.332
 xc_functional_eval                1902 10.9    0.001    0.004    1.340    2.250
 pbe_lda_eval                      1902 11.9    1.339    2.246    1.339    2.246
 mp_max_i                           700  4.9    1.026    2.166    1.026    2.166
 dbcsr_complete_redistribute       3364 10.5    0.072    0.105    1.433    1.839
 integrate_four_center_getP         389 10.8    0.043    0.052    1.232    1.670
 mp_alltoall_i22                   4462 11.4    1.063    1.641    1.063    1.641
 copy_fm_to_dbcsr                  2265  9.5    0.006    0.008    1.055    1.506
 dbcsr_multiply_generic            1395 10.3    0.035    0.041    1.201    1.248
 fft_wrap_pw1pw2_30                 460 11.9    0.016    0.019    0.811    1.182
 transfer_rs2pw_10                  231 11.8    0.367    0.428    1.010    1.173
 pw_poisson_rebuild                 229 10.4    0.000    0.000    1.146    1.167
 ps_wavelet_create                    1 10.0    0.000    0.000    1.146    1.167
 RS_z_slice_distribution              1 11.0    0.227    0.352    1.146    1.167
 transfer_pw2rs_10                  229 12.0    0.221    0.254    0.963    1.114
 grid_integrate_task_list           229 10.0    0.065    1.077    0.065    1.077
 rs_gather_matrices                 229 10.0    0.002    0.012    0.055    1.037
 powell_optimize                 567099 11.0    0.827    0.965    0.827    0.965
 calculate_rho_atom_coeff           231  8.8    0.046    0.112    0.957    0.960
 prepare_dr1dr                     1440 11.1    0.752    0.920    0.752    0.920
 parallel_gemm_fm                  1483  8.2    0.001    0.001    0.791    0.915
 parallel_gemm_fm_cosma            1483  9.2    0.790    0.914    0.790    0.914
 cp_dbcsr_sm_fm_multiply_core      1006  9.6    0.001    0.002    0.820    0.861
 calc_pair_dist_radii                 1 10.0    0.356    0.361    0.714    0.789
 update_ks_atom                     229  8.7    0.023    0.061    0.437    0.781
 qs_scf_new_mos                      69  5.0    0.001    0.003    0.655    0.778
 mp_bcast_dm                       1832  9.7    0.414    0.762    0.414    0.762
 offload_free_buffer                237 10.2    0.451    0.726    0.451    0.726
 copy_dbcsr_to_fm                  1097  9.3    0.008    0.012    0.641    0.723
 tddfpt_orthonormalize_psi1_psi       9  6.9    0.008    0.009    0.571    0.662
 integrate_four_center_dist_KS      389 10.8    0.041    0.051    0.599    0.604
 tddfpt_construct_ground_state_       1  6.0    0.000    0.000    0.573    0.579
 multiply_cannon                   1395 11.3    0.084    0.096    0.479    0.529
 init_scf_run                         1  3.0    0.000    0.001    0.491    0.491
 cp_dbcsr_plus_fm_fm_t              229  8.4    0.002    0.002    0.476    0.490
 scf_env_initial_rho_setup            1  4.0    0.001    0.004    0.480    0.480
 fft_wrap_pw1pw2_10                 460 11.9    0.004    0.005    0.346    0.469
 xc_2nd_deriv_of_r                 1280 10.0    0.000    0.053    0.003    0.445
 mp_sum_l                          5395 10.5    0.383    0.442    0.383    0.442
 mp_rank_compare                   4663 14.0    0.381    0.414    0.381    0.414
 eigensolver_symm                    69  6.0    0.005    0.007    0.398    0.402
 scale_and_distribute               458 11.4    0.294    0.400    0.294    0.400
 make_m2s                          2790 11.3    0.020    0.023    0.346    0.383
 cp_fm_trace_a1b1t1_aa            13090  8.0    0.023    0.041    0.311    0.370
 multiply_cannon_loop              1395 12.3    0.059    0.061    0.295    0.360
 mp_isendrecv_dv                 156972 12.3    0.110    0.339    0.110    0.339
 make_images                       2790 12.3    0.053    0.062    0.297    0.331
 cp_fm_diag_elpa                     99  7.3    0.000    0.000    0.324    0.330
 tddfpt_print_nto_analysis            1  6.0    0.001    0.002    0.318    0.325
 mp_alltoall_z11v                   460 14.9    0.227    0.322    0.227    0.322
 tddfpt_compute_residual_vects        7  7.0    0.000    0.000    0.320    0.322
 cp_fm_diag_elpa_base                99  8.3    0.295    0.300    0.304    0.304
 dbcsr_desymmetrize_deep           1098 10.3    0.011    0.013    0.187    0.302
 pw_scale                           596  9.5    0.180    0.259    0.180    0.259
 calculate_rho0_atom                920  9.7    0.216    0.236    0.216    0.236
 tddfpt_apply_energy_diff             8  8.0    0.000    0.000    0.234    0.234
 create_kernel_env                    1  6.0    0.000    0.000    0.201    0.217
 xc_prep_2nd_deriv                    1  7.0    0.000    0.000    0.201    0.217
 qs_energies_init_hamiltonians        1  3.0    0.002    0.004    0.214    0.216
 build_core_hamiltonian_matrix        1  4.0    0.006    0.015    0.200    0.202
 overlap_condnum                      1  5.0    0.001    0.002    0.188    0.200
 yz_to_xz                           229 14.0    0.010    0.011    0.137    0.197
 qs_init_subsys                       1  2.0    0.014    0.026    0.184    0.186
 qs_env_setup                         1  3.0    0.001    0.002    0.159    0.175
 qs_env_rebuild_pw_env                2  3.5    0.000    0.000    0.158    0.174
 pw_env_rebuild                       1  5.0    0.003    0.004    0.158    0.174
 make_images_sizes                 2790 13.3    0.002    0.002    0.159    0.173
 mp_alltoall_i44                   2790 14.3    0.157    0.171    0.157    0.171
 mp_cart_sub                       2197 11.3    0.159    0.162    0.159    0.162
 rs_grid_create                     235 10.3    0.001    0.002    0.023    0.157
 mp_cart_create                    2018 10.6    0.142    0.154    0.144    0.157
 offload_create_buffer              237 11.3    0.022    0.155    0.022    0.155
 calculate_dm_sparse                 69  6.0    0.000    0.000    0.139    0.153
 integrate_four_center_load         389 10.8    0.000    0.001    0.104    0.151
 hfx_load_balance                     1 11.0    0.001    0.004    0.104    0.150
 xz_to_yz                           231 13.8    0.007    0.018    0.107    0.148
 multiply_cannon_metrocomm3       22320 13.3    0.030    0.031    0.078    0.148
 tddfpt_orthogonalize_psi1_psi0       9  6.9    0.000    0.000    0.092    0.144
 pw_grid_setup                        4  6.0    0.001    0.001    0.124    0.141
 pw_grid_setup_internal               4  7.0    0.002    0.002    0.123    0.141
 vxc_of_r_new                       552  9.0    0.000    0.012    0.001    0.140
 hfx_load_balance_range               1 12.0    0.000    0.000    0.093    0.140
 create_qs_kind_set                   1  2.0    0.000    0.000    0.122    0.139
 read_qs_kind                         4  3.0    0.047    0.062    0.122    0.139
 mp_alltoall_i11v                 11190 11.4    0.038    0.135    0.038    0.135
 arnoldi_conjugate_gradient           5  6.0    0.004    0.004    0.130    0.130
 dbcsr_finalize                    8083 11.4    0.017    0.024    0.102    0.125
 cp_fm_geeig                         20  7.0    0.001    0.001    0.122    0.123
 mp_irecv_dv                      86661 13.5    0.053    0.102    0.053    0.102
 scf_post_calculation_gpw             1  3.0    0.000    0.000    0.092    0.095
 mp_isend_dv                      87437 13.5    0.081    0.094    0.081    0.094
 parser_read_line                 18532  4.0    0.003    0.003    0.075    0.093
 parser_read_line_low                32  5.0    0.002    0.020    0.072    0.090
 write_available_results              1  4.0    0.000    0.000    0.090    0.090
 write_mo_free_results                1  5.0    0.003    0.004    0.090    0.090
 broadcast_input_information         32  6.0    0.010    0.010    0.070    0.089
 dbcsr_merge_all                   6526 12.4    0.044    0.065    0.066    0.084
 dbcsr_sym_matrix_vector_mult      1005  7.0    0.007    0.008    0.057    0.081
 dbcsr_create_new                 26410 11.4    0.052    0.062    0.069    0.079
 pw_grid_sort                         4  8.0    0.055    0.056    0.076    0.078
 multiply_cannon_metrocomm1       22320 13.3    0.016    0.017    0.036    0.078
 mp_allgather_i34                  1395 12.3    0.062    0.072    0.062    0.072
 write_mo_set_to_restart             69  5.0    0.001    0.055    0.032    0.071
 mp_bcast_i_src                     128  7.0    0.037    0.065    0.037    0.065
 cube_transpose_1                   229 14.0    0.003    0.004    0.018    0.065
 multiply_cannon_metrocomm4       20925 13.3    0.032    0.034    0.055    0.064
 cp_fm_write_unformatted             24  7.0    0.063    0.063    0.063    0.063
 make_images_data                  2790 13.3    0.015    0.020    0.035    0.062
 multiply_cannon_metrocomm2       19530 13.3    0.030    0.033    0.052    0.061
 mp_bcast_b_src                     168  7.9    0.052    0.060    0.052    0.060
 cp_fm_syevd                         20  7.0    0.000    0.000    0.050    0.055
 cube_transpose_2                   231 13.8    0.003    0.004    0.028    0.052
 rs_scatter_matrices                231  9.8    0.001    0.003    0.005    0.051
 external_control                    69  5.0    0.000    0.047    0.050    0.050
 mp_max_d                           211  8.3    0.024    0.049    0.024    0.049
 -------------------------------------------------------------------------------

 The number of warnings for this run is : 1
 
 -------------------------------------------------------------------------------
  **** **** ******  **  PROGRAM ENDED AT                 2025-04-21 16:10:06.412
 ***** ** ***  *** **   PROGRAM RAN ON                                  n2cn0333
 **    ****   ******    PROGRAM RAN BY                                  metdyn02
 ***** **    ** ** **   PROGRAM PROCESS ID                               1908252
  **** **  *******  **  PROGRAM STOPPED IN /scratch/hpc-prf-metdyn/metdyn02_Remi
                                           /10_MOL/05_MOL/W4-11+ALK/hocn/DZVP/TD
                                           DFT/RILIM
