 DBCSR| CPU Multiplication driver                                           BLAS (U)
 DBCSR| Multrec recursion limit                                              512 (U)
 DBCSR| Multiplication stack size                                           1000 (D)
 DBCSR| Maximum elements for images                                    UNLIMITED (U)
 DBCSR| Multiplicative factor virtual images                                   1 (U)
 DBCSR| Use multiplication densification                                       T (D)
 DBCSR| Multiplication size stacks                                             3 (U)
 DBCSR| Use memory pool for CPU allocation                                     F (U)
 DBCSR| Number of 3D layers                                               SINGLE (U)
 DBCSR| Use MPI memory allocation                                              F (U)
 DBCSR| Use RMA algorithm                                                      F (U)
 DBCSR| Use Communication thread                                               T (U)
 DBCSR| Communication thread load                                             75 (D)
 DBCSR| MPI: My process id                                                     0
 DBCSR| MPI: Number of processes                                             216
 DBCSR| OMP: Current number of threads                                         4
 DBCSR| OMP: Max number of threads                                             4
 DBCSR| Split modifier for TAS multiplication algorithm                  1.0E+00 (U)


  **** **** ******  **  PROGRAM STARTED AT               2025-04-12 02:54:11.324
 ***** ** ***  *** **   PROGRAM STARTED ON                          i04r02c04s04
 **    ****   ******    PROGRAM STARTED BY                               di38fab
 ***** **    ** ** **   PROGRAM PROCESS ID                               1250934
  **** **  *******  **  PROGRAM STARTED IN /hppfs/scratch/04/di38fab/07_MOL_non_
                                           aug/05_MOL_non_aug/05_MOL/W4-11+ALK/l
                                           i5_ch/cc-pVQZ/GW+BSE

 CP2K| version string:                 CP2K version 2025.1 (Development Version)
 CP2K| source code revision number:                             unknown revision
 CP2K| cp2kflags: omp libint fftw3 libxc parallel scalapack max_contr=4         
 CP2K| is freely available from                            https://www.cp2k.org/
 CP2K| Program compiled at                         Thu Apr 10 16:20:23 CEST 2025
 CP2K| Program compiled on                                               login01
 CP2K| Program compiled for                                        Supermuc-foss
 CP2K| Data directory path                  /hppfs/work/pn36zo/di38fab/cp2k/data
 CP2K| Input file name                                                    GW.inp

 GLOBAL| Force Environment number                                              1
 GLOBAL| Basis set file name            /hppfs/scratch/04/di38fab/04_TMD/BASIS_A
 GLOBAL| Potential file name            /hppfs/work/pn36zo/di38fab/cp2k/data/ALL
 GLOBAL| MM Potential file name                                     MM_POTENTIAL
 GLOBAL| Coordinate file name                                      __STD_INPUT__
 GLOBAL| Method name                                                        CP2K
 GLOBAL| Project name                                                       MoS2
 GLOBAL| Run type                                                         ENERGY
 GLOBAL| FFT library                                                       FFTW3
 GLOBAL| Diagonalization library                                       ScaLAPACK
 GLOBAL| DGEMM library                                                      BLAS
 GLOBAL| Orthonormality check for eigenvectors                          DISABLED
 GLOBAL| Matrix multiplication library                                 ScaLAPACK
 GLOBAL| All-to-all communication in single precision                          F
 GLOBAL| FFTs using library dependent lengths                                  F
 GLOBAL| Grid backend                                                       AUTO
 GLOBAL| Global print level                                               MEDIUM
 GLOBAL| MPI I/O enabled                                                       T
 GLOBAL| Total number of message passing processes                           216
 GLOBAL| Number of threads for this process                                    4
 GLOBAL| This output is from process                                           0
 GLOBAL| OpenMP stack size per thread (OMP_STACKSIZE)                    default
 GLOBAL| CPU model name             Intel(R) Xeon(R) Platinum 8174 CPU @ 3.10GHz

 MEMORY| system memory details [Kb]
 MEMORY|                        rank 0           min           max       average
 MEMORY| MemTotal             98436664      98436660      98436708      98436666
 MEMORY| MemFree              84089952      83670144      84258340      83981236
 MEMORY| Buffers                     0             0             0             0
 MEMORY| Cached                2389952       2389700       2415312       2401438
 MEMORY| Slab                  1211640       1211028       1254380       1230934
 MEMORY| SReclaimable           263564        261560        281784        270459
 MEMORY| MemLikelyFree        86743468      86340068      86920736      86653134


 *** Fundamental physical constants (SI units) ***

 *** Literature: B. J. Mohr and B. N. Taylor,
 ***             CODATA recommended values of the fundamental physical
 ***             constants: 2006, Web Version 5.1
 ***             http://physics.nist.gov/constants

 Speed of light in vacuum [m/s]                             2.99792458000000E+08
 Magnetic constant or permeability of vacuum [N/A**2]       1.25663706143592E-06
 Electric constant or permittivity of vacuum [F/m]          8.85418781762039E-12
 Planck constant (h) [J*s]                                  6.62606896000000E-34
 Planck constant (h-bar) [J*s]                              1.05457162825177E-34
 Elementary charge [C]                                      1.60217648700000E-19
 Electron mass [kg]                                         9.10938215000000E-31
 Electron g factor [ ]                                     -2.00231930436220E+00
 Proton mass [kg]                                           1.67262163700000E-27
 Fine-structure constant                                    7.29735253760000E-03
 Rydberg constant [1/m]                                     1.09737315685270E+07
 Avogadro constant [1/mol]                                  6.02214179000000E+23
 Boltzmann constant [J/K]                                   1.38065040000000E-23
 Atomic mass unit [kg]                                      1.66053878200000E-27
 Bohr radius [m]                                            5.29177208590000E-11

 *** Conversion factors ***

 [u] -> [a.u.]                                              1.82288848426455E+03
 [Angstrom] -> [Bohr] = [a.u.]                              1.88972613288564E+00
 [a.u.] = [Bohr] -> [Angstrom]                              5.29177208590000E-01
 [a.u.] -> [s]                                              2.41888432650478E-17
 [a.u.] -> [fs]                                             2.41888432650478E-02
 [a.u.] -> [J]                                              4.35974393937059E-18
 [a.u.] -> [N]                                              8.23872205491840E-08
 [a.u.] -> [K]                                              3.15774647902944E+05
 [a.u.] -> [kJ/mol]                                         2.62549961709828E+03
 [a.u.] -> [kcal/mol]                                       6.27509468713739E+02
 [a.u.] -> [Pa]                                             2.94210107994716E+13
 [a.u.] -> [bar]                                            2.94210107994716E+08
 [a.u.] -> [atm]                                            2.90362800883016E+08
 [a.u.] -> [eV]                                             2.72113838565563E+01
 [a.u.] -> [Hz]                                             6.57968392072181E+15
 [a.u.] -> [1/cm] (wave numbers)                            2.19474631370540E+05
 [a.u./Bohr**2] -> [1/cm]                                   5.14048714338585E+03
 

 CELL_TOP| Volume [angstrom^3]:                                     27000.000000
 CELL_TOP| Vector a [angstrom    30.000     0.000     0.000   |a| =    30.000000
 CELL_TOP| Vector b [angstrom     0.000    30.000     0.000   |b| =    30.000000
 CELL_TOP| Vector c [angstrom     0.000     0.000    30.000   |c| =    30.000000
 CELL_TOP| Angle (b,c), alpha [degree]:                                90.000000
 CELL_TOP| Angle (a,c), beta  [degree]:                                90.000000
 CELL_TOP| Angle (a,b), gamma [degree]:                                90.000000
 CELL_TOP| Numerically orthorhombic:                                         YES
 CELL_TOP| Periodicity                                                      NONE

 GENERATE|  Preliminary Number of Bonds generated:                             0
 GENERATE|  Achieved consistency in connectivity generation.

 CELL| Volume [angstrom^3]:                                         27000.000000
 CELL| Vector a [angstrom]:      30.000     0.000     0.000   |a| =    30.000000
 CELL| Vector b [angstrom]:       0.000    30.000     0.000   |b| =    30.000000
 CELL| Vector c [angstrom]:       0.000     0.000    30.000   |c| =    30.000000
 CELL| Angle (b,c), alpha [degree]:                                    90.000000
 CELL| Angle (a,c), beta  [degree]:                                    90.000000
 CELL| Angle (a,b), gamma [degree]:                                    90.000000
 CELL| Numerically orthorhombic:                                             YES
 CELL| Periodicity                                                          NONE

 CELL_REF| Volume [angstrom^3]:                                     27000.000000
 CELL_REF| Vector a [angstrom    30.000     0.000     0.000   |a| =    30.000000
 CELL_REF| Vector b [angstrom     0.000    30.000     0.000   |b| =    30.000000
 CELL_REF| Vector c [angstrom     0.000     0.000    30.000   |c| =    30.000000
 CELL_REF| Angle (b,c), alpha [degree]:                                90.000000
 CELL_REF| Angle (a,c), beta  [degree]:                                90.000000
 CELL_REF| Angle (a,b), gamma [degree]:                                90.000000
 CELL_REF| Numerically orthorhombic:                                         YES
 CELL_REF| Periodicity                                                      NONE

 *******************************************************************************
 *******************************************************************************
 **                                                                           **
 **     #####                         ##              ##                      **
 **    ##   ##            ##          ##              ##                      **
 **   ##     ##                       ##            ######                    **
 **   ##     ##  ##   ##  ##   #####  ##  ##   ####   ##    #####    #####    **
 **   ##     ##  ##   ##  ##  ##      ## ##   ##      ##   ##   ##  ##   ##   **
 **   ##  ## ##  ##   ##  ##  ##      ####     ###    ##   ######   ######    **
 **    ##  ###   ##   ##  ##  ##      ## ##      ##   ##   ##       ##        **
 **     #######   #####   ##   #####  ##  ##  ####    ##    #####   ##        **
 **           ##                                                    ##        **
 **                                                                           **
 **                                                ... make the atoms dance   **
 **                                                                           **
 **            Copyright (C) by CP2K developers group (2000-2025)             **
 **                      J. Chem. Phys. 152, 194103 (2020)                    **
 **                                                                           **
 *******************************************************************************

 DFT| Spin restricted Kohn-Sham (RKS) calculation                            RKS
 DFT| Multiplicity                                                             1
 DFT| Number of spin states                                                    1
 DFT| Charge                                                                   0
 DFT| Self-interaction correction (SIC)                                       NO
 DFT| Cutoffs: density                                              1.000000E-10
 DFT|          gradient                                             1.000000E-10
 DFT|          tau                                                  1.000000E-10
 DFT|          cutoff_smoothing_range                               0.000000E+00
 DFT| XC density smoothing                                                  NONE
 DFT| XC derivatives                                                          PW

 FUNCTIONAL| PBE:
 FUNCTIONAL| J.P.Perdew, K.Burke, M.Ernzerhof, Phys. Rev. Letter, vol. 77, n 18,
 FUNCTIONAL|  pp. 3865-3868, (1996)sx=0.750sc=1.000{spin unpolarized}           


 QS| Method:                                                                GAPW
 QS| Density plane wave grid type                        NON-SPHERICAL FULLSPACE
 QS| Number of grid levels:                                                    4
 QS| Density cutoff [a.u.]:                                                250.0
 QS| Multi grid cutoff [a.u.]: 1) grid level                               250.0
 QS|                           2) grid level                                83.3
 QS|                           3) grid level                                27.8
 QS|                           4) grid level                                 9.3
 QS| Grid level progression factor:                                          3.0
 QS| Relative density cutoff [a.u.]:                                        50.0
 QS| Interaction thresholds: eps_pgf_orb:                                1.0E-12
 QS|                         eps_filter_matrix:                          0.0E+00
 QS|                         eps_core_charge:                            1.0E-14
 QS|                         eps_rho_gspace:                             1.0E-12
 QS|                         eps_rho_rspace:                             1.0E-12
 QS|                         eps_gvg_rspace:                             1.0E-06
 QS|                         eps_ppl:                                    1.0E-02
 QS|                         eps_ppnl:                                   1.0E-08
 QS| GAPW|      One center basis from orbital basis primitives
 QS| GAPW|                   eps_fit:                                    1.0E-04
 QS| GAPW|                   eps_iso:                                    1.0E-12
 QS| GAPW|                   eps_svd:                                    1.0E-08
 QS| GAPW|                   eps_cpc:                                    1.0E-12
 QS| GAPW|   atom-r-grid: quadrature:                                     GC_LOG
 QS| GAPW|      atom-s-grid:  max l :                                          8
 QS| GAPW|      max_l_rho0 :                                                   2


 ATOMIC KIND INFORMATION

  1. Atomic kind: c                                     Number of atoms:       1

     Orbital Basis Set                                                   cc-pVQZ

       Number of orbital shell sets:                                           5
       Number of orbital shells:                                              15
       Number of primitive Cartesian functions:                               24
       Number of Cartesian basis functions:                                   70
       Number of spherical basis functions:                                   55
       Norm type:                                                              2

       Normalised Cartesian orbitals:

                        Set   Shell   Orbital            Exponent    Coefficient

                          1       1    1px              34.510000       0.000000
                                                         7.915000       0.000000
                                                         2.368000       0.000000
                                                         0.813200       1.100745
                                                         0.289000       0.000000
                                                         0.100700       0.000000
                          1       1    1py              34.510000       0.000000
                                                         7.915000       0.000000
                                                         2.368000       0.000000
                                                         0.813200       1.100745
                                                         0.289000       0.000000
                                                         0.100700       0.000000
                          1       1    1pz              34.510000       0.000000
                                                         7.915000       0.000000
                                                         2.368000       0.000000
                                                         0.813200       1.100745
                                                         0.289000       0.000000
                                                         0.100700       0.000000

                          1       2    2px              34.510000       0.641198
                                                         7.915000       0.683747
                                                         2.368000       0.596637
                                                         0.813200       0.376620
                                                         0.289000       0.140105
                                                         0.100700       0.020217
                          1       2    2py              34.510000       0.641198
                                                         7.915000       0.683747
                                                         2.368000       0.596637
                                                         0.813200       0.376620
                                                         0.289000       0.140105
                                                         0.100700       0.020217
                          1       2    2pz              34.510000       0.641198
                                                         7.915000       0.683747
                                                         2.368000       0.596637
                                                         0.813200       0.376620
                                                         0.289000       0.140105
                                                         0.100700       0.020217

                          1       3    3px              34.510000       0.000000
                                                         7.915000       0.000000
                                                         2.368000       0.000000
                                                         0.813200       0.000000
                                                         0.289000       0.302039
                                                         0.100700       0.000000
                          1       3    3py              34.510000       0.000000
                                                         7.915000       0.000000
                                                         2.368000       0.000000
                                                         0.813200       0.000000
                                                         0.289000       0.302039
                                                         0.100700       0.000000
                          1       3    3pz              34.510000       0.000000
                                                         7.915000       0.000000
                                                         2.368000       0.000000
                                                         0.813200       0.000000
                                                         0.289000       0.302039
                                                         0.100700       0.000000

                          1       4    4px              34.510000       0.000000
                                                         7.915000       0.000000
                                                         2.368000       0.000000
                                                         0.813200       0.000000
                                                         0.289000       0.000000
                                                         0.100700       0.080859
                          1       4    4py              34.510000       0.000000
                                                         7.915000       0.000000
                                                         2.368000       0.000000
                                                         0.813200       0.000000
                                                         0.289000       0.000000
                                                         0.100700       0.080859
                          1       4    4pz              34.510000       0.000000
                                                         7.915000       0.000000
                                                         2.368000       0.000000
                                                         0.813200       0.000000
                                                         0.289000       0.000000
                                                         0.100700       0.080859

                          2       1    1s            33980.000000       0.162319
                                                      5089.000000       0.302313
                                                      1157.000000       0.522143
                                                       326.600000       0.841034
                                                       106.100000       1.247069
                                                        38.110000       1.607436
                                                        14.750000       1.639463
                                                         6.035000       1.095889
                                                         2.530000       0.310322
                                                         0.735500       0.008997
                                                         0.290500      -0.000870
                                                         0.111100       0.000134

                          2       2    2s            33980.000000       0.000000
                                                      5089.000000       0.000000
                                                      1157.000000       0.000000
                                                       326.600000       0.000000
                                                       106.100000       0.000000
                                                        38.110000       0.000000
                                                        14.750000       0.000000
                                                         6.035000       0.000000
                                                         2.530000       0.000000
                                                         0.735500       0.566040
                                                         0.290500       0.000000
                                                         0.111100       0.000000

                          2       3    3s            33980.000000       0.000000
                                                      5089.000000       0.000000
                                                      1157.000000       0.000000
                                                       326.600000       0.000000
                                                       106.100000       0.000000
                                                        38.110000       0.000000
                                                        14.750000       0.000000
                                                         6.035000       0.000000
                                                         2.530000       0.000000
                                                         0.735500       0.000000
                                                         0.290500       0.282013
                                                         0.111100       0.000000

                          2       4    4s            33980.000000      -0.033891
                                                      5089.000000      -0.064843
                                                      1157.000000      -0.110989
                                                       326.600000      -0.182005
                                                       106.100000      -0.271236
                                                        38.110000      -0.373428
                                                        14.750000      -0.413970
                                                         6.035000      -0.388287
                                                         2.530000      -0.168734
                                                         0.735500       0.154985
                                                         0.290500       0.165404
                                                         0.111100       0.039147

                          2       5    5s            33980.000000       0.000000
                                                      5089.000000       0.000000
                                                      1157.000000       0.000000
                                                       326.600000       0.000000
                                                       106.100000       0.000000
                                                        38.110000       0.000000
                                                        14.750000       0.000000
                                                         6.035000       0.000000
                                                         2.530000       0.000000
                                                         0.735500       0.000000
                                                         0.290500       0.000000
                                                         0.111100       0.137150

                          3       1    1dx2              1.848000       4.821009
                                                         0.649000       0.000000
                                                         0.228000       0.000000
                          3       1    1dxy              1.848000       8.350232
                                                         0.649000       0.000000
                                                         0.228000       0.000000
                          3       1    1dxz              1.848000       8.350232
                                                         0.649000       0.000000
                                                         0.228000       0.000000
                          3       1    1dy2              1.848000       4.821009
                                                         0.649000       0.000000
                                                         0.228000       0.000000
                          3       1    1dyz              1.848000       8.350232
                                                         0.649000       0.000000
                                                         0.228000       0.000000
                          3       1    1dz2              1.848000       4.821009
                                                         0.649000       0.000000
                                                         0.228000       0.000000

                          3       2    2dx2              1.848000       0.000000
                                                         0.649000       0.772392
                                                         0.228000       0.000000
                          3       2    2dxy              1.848000       0.000000
                                                         0.649000       1.337822
                                                         0.228000       0.000000
                          3       2    2dxz              1.848000       0.000000
                                                         0.649000       1.337822
                                                         0.228000       0.000000
                          3       2    2dy2              1.848000       0.000000
                                                         0.649000       0.772392
                                                         0.228000       0.000000
                          3       2    2dyz              1.848000       0.000000
                                                         0.649000       1.337822
                                                         0.228000       0.000000
                          3       2    2dz2              1.848000       0.000000
                                                         0.649000       0.772392
                                                         0.228000       0.000000

                          3       3    3dx2              1.848000       0.000000
                                                         0.649000       0.000000
                                                         0.228000       0.123821
                          3       3    3dxy              1.848000       0.000000
                                                         0.649000       0.000000
                                                         0.228000       0.214465
                          3       3    3dxz              1.848000       0.000000
                                                         0.649000       0.000000
                                                         0.228000       0.214465
                          3       3    3dy2              1.848000       0.000000
                                                         0.649000       0.000000
                                                         0.228000       0.123821
                          3       3    3dyz              1.848000       0.000000
                                                         0.649000       0.000000
                                                         0.228000       0.214465
                          3       3    3dz2              1.848000       0.000000
                                                         0.649000       0.000000
                                                         0.228000       0.123821

                          4       1    1fx3              1.419000       3.235302
                                                         0.485000       0.000000
                          4       1    1fx2y             1.419000       7.234355
                                                         0.485000       0.000000
                          4       1    1fx2z             1.419000       7.234355
                                                         0.485000       0.000000
                          4       1    1fxy2             1.419000       7.234355
                                                         0.485000       0.000000
                          4       1    1fxyz             1.419000      12.530271
                                                         0.485000       0.000000
                          4       1    1fxz2             1.419000       7.234355
                                                         0.485000       0.000000
                          4       1    1fy3              1.419000       3.235302
                                                         0.485000       0.000000
                          4       1    1fy2z             1.419000       7.234355
                                                         0.485000       0.000000
                          4       1    1fyz2             1.419000       7.234355
                                                         0.485000       0.000000
                          4       1    1fz3              1.419000       3.235302
                                                         0.485000       0.000000

                          4       2    2fx3              1.419000       0.000000
                                                         0.485000       0.288984
                          4       2    2fx2y             1.419000       0.000000
                                                         0.485000       0.646187
                          4       2    2fx2z             1.419000       0.000000
                                                         0.485000       0.646187
                          4       2    2fxy2             1.419000       0.000000
                                                         0.485000       0.646187
                          4       2    2fxyz             1.419000       0.000000
                                                         0.485000       1.119229
                          4       2    2fxz2             1.419000       0.000000
                                                         0.485000       0.646187
                          4       2    2fy3              1.419000       0.000000
                                                         0.485000       0.288984
                          4       2    2fy2z             1.419000       0.000000
                                                         0.485000       0.646187
                          4       2    2fyz2             1.419000       0.000000
                                                         0.485000       0.646187
                          4       2    2fz3              1.419000       0.000000
                                                         0.485000       0.288984

                          5       1    1gx4              1.011000       1.146835
                          5       1    1gx3y             1.011000       3.034241
                          5       1    1gx3z             1.011000       3.034241
                          5       1    1gx2y2            1.011000       3.917189
                          5       1    1gx2yz            1.011000       6.784770
                          5       1    1gx2z2            1.011000       3.917189
                          5       1    1gxy3             1.011000       3.034241
                          5       1    1gxy2z            1.011000       6.784770
                          5       1    1gxyz2            1.011000       6.784770
                          5       1    1gxz3             1.011000       3.034241
                          5       1    1gy4              1.011000       1.146835
                          5       1    1gy3z             1.011000       3.034241
                          5       1    1gy2z2            1.011000       3.917189
                          5       1    1gyz3             1.011000       3.034241
                          5       1    1gz4              1.011000       1.146835

     RI Auxiliary Basis Set                                        cc-pVQZ-RIFIT

       Number of orbital shell sets:                                          30
       Number of orbital shells:                                              30
       Number of primitive Cartesian functions:                               30
       Number of Cartesian basis functions:                                  181
       Number of spherical basis functions:                                  132
       Norm type:                                                              2

       Normalised Cartesian orbitals:

                        Set   Shell   Orbital            Exponent    Coefficient

                          1       1    1px               0.245452       0.246262
                          1       1    1py               0.245452       0.246262
                          1       1    1pz               0.245452       0.246262

                          2       1    1s                0.249261       0.251421

                          3       1    1fx3              0.348633       0.137494
                          3       1    1fx2y             0.348633       0.307445
                          3       1    1fx2z             0.348633       0.307445
                          3       1    1fxy2             0.348633       0.307445
                          3       1    1fxyz             0.348633       0.532510
                          3       1    1fxz2             0.348633       0.307445
                          3       1    1fy3              0.348633       0.137494
                          3       1    1fy2z             0.348633       0.307445
                          3       1    1fyz2             0.348633       0.307445
                          3       1    1fz3              0.348633       0.137494

                          4       1    1dx2              0.352145       0.264955
                          4       1    1dxy              0.352145       0.458916
                          4       1    1dxz              0.352145       0.458916
                          4       1    1dy2              0.352145       0.264955
                          4       1    1dyz              0.352145       0.458916
                          4       1    1dz2              0.352145       0.264955

                          5       1    1s                0.489646       0.417178

                          6       1    1px               0.517168       0.625144
                          6       1    1py               0.517168       0.625144
                          6       1    1pz               0.517168       0.625144

                          7       1    1dx2              0.599456       0.672178
                          7       1    1dxy              0.599456       1.164246
                          7       1    1dxz              0.599456       1.164246
                          7       1    1dy2              0.599456       0.672178
                          7       1    1dyz              0.599456       1.164246
                          7       1    1dz2              0.599456       0.672178

                          8       1    1gx4              0.713257       0.439402
                          8       1    1gx3y             0.713257       1.162547
                          8       1    1gx3z             0.713257       1.162547
                          8       1    1gx2y2            0.713257       1.500842
                          8       1    1gx2yz            0.713257       2.599535
                          8       1    1gx2z2            0.713257       1.500842
                          8       1    1gxy3             0.713257       1.162547
                          8       1    1gxy2z            0.713257       2.599535
                          8       1    1gxyz2            0.713257       2.599535
                          8       1    1gxz3             0.713257       1.162547
                          8       1    1gy4              0.713257       0.439402
                          8       1    1gy3z             0.713257       1.162547
                          8       1    1gy2z2            0.713257       1.500842
                          8       1    1gyz3             0.713257       1.162547
                          8       1    1gz4              0.713257       0.439402

                          9       1    1fx3              0.729795       0.724697
                          9       1    1fx2y             0.729795       1.620471
                          9       1    1fx2z             0.729795       1.620471
                          9       1    1fxy2             0.729795       1.620471
                          9       1    1fxyz             0.729795       2.806738
                          9       1    1fxz2             0.729795       1.620471
                          9       1    1fy3              0.729795       0.724697
                          9       1    1fy2z             0.729795       1.620471
                          9       1    1fyz2             0.729795       1.620471
                          9       1    1fz3              0.729795       0.724697

                         10       1    1s                0.872371       0.643333

                         11       1    1dx2              1.031012       1.736286
                         11       1    1dxy              1.031012       3.007336
                         11       1    1dxz              1.031012       3.007336
                         11       1    1dy2              1.031012       1.736286
                         11       1    1dyz              1.031012       3.007336
                         11       1    1dz2              1.031012       1.736286

                         12       1    1px               1.053382       1.521151
                         12       1    1py               1.053382       1.521151
                         12       1    1pz               1.053382       1.521151

                         13       1    1gx4              1.349558       2.537826
                         13       1    1gx3y             1.349558       6.714456
                         13       1    1gx3z             1.349558       6.714456
                         13       1    1gx2y2            1.349558       8.668326
                         13       1    1gx2yz            1.349558      15.013981
                         13       1    1gx2z2            1.349558       8.668326
                         13       1    1gxy3             1.349558       6.714456
                         13       1    1gxy2z            1.349558      15.013981
                         13       1    1gxyz2            1.349558      15.013981
                         13       1    1gxz3             1.349558       6.714456
                         13       1    1gy4              1.349558       2.537826
                         13       1    1gy3z             1.349558       6.714456
                         13       1    1gy2z2            1.349558       8.668326
                         13       1    1gyz3             1.349558       6.714456
                         13       1    1gz4              1.349558       2.537826

                         14       1    1hx5              1.486936       2.693359
                         14       1    1hx4y             1.486936       8.080076
                         14       1    1hx4z             1.486936       8.080076
                         14       1    1hx3y2            1.486936      12.342519
                         14       1    1hx3yz            1.486936      21.377871
                         14       1    1hx3z2            1.486936      12.342519
                         14       1    1hx2y3            1.486936      12.342519
                         14       1    1hx2y2z           1.486936      27.598712
                         14       1    1hx2yz2           1.486936      27.598712
                         14       1    1hx2z3            1.486936      12.342519
                         14       1    1hxy4             1.486936       8.080076
                         14       1    1hxy3z            1.486936      21.377871
                         14       1    1hxy2z2           1.486936      27.598712
                         14       1    1hxyz3            1.486936      21.377871
                         14       1    1hxz4             1.486936       8.080076
                         14       1    1hy5              1.486936       2.693359
                         14       1    1hy4z             1.486936       8.080076
                         14       1    1hy3z2            1.486936      12.342519
                         14       1    1hy2z3            1.486936      12.342519
                         14       1    1hyz4             1.486936       8.080076
                         14       1    1hz5              1.486936       2.693359

                         15       1    1s                1.639209       1.032490

                         16       1    1px               1.688444       2.743459
                         16       1    1py               1.688444       2.743459
                         16       1    1pz               1.688444       2.743459

                         17       1    1fx3              1.738978       5.112301
                         17       1    1fx2y             1.738978      11.431452
                         17       1    1fx2z             1.738978      11.431452
                         17       1    1fxy2             1.738978      11.431452
                         17       1    1fxyz             1.738978      19.799856
                         17       1    1fxz2             1.738978      11.431452
                         17       1    1fy3              1.738978       5.112301
                         17       1    1fy2z             1.738978      11.431452
                         17       1    1fyz2             1.738978      11.431452
                         17       1    1fz3              1.738978       5.112301

                         18       1    1dx2              2.204215       6.563024
                         18       1    1dxy              2.204215      11.367491
                         18       1    1dxz              2.204215      11.367491
                         18       1    1dy2              2.204215       6.563024
                         18       1    1dyz              2.204215      11.367491
                         18       1    1dz2              2.204215       6.563024

                         19       1    1fx3              2.263014       9.246997
                         19       1    1fx2y             2.263014      20.676914
                         19       1    1fx2z             2.263014      20.676914
                         19       1    1fxy2             2.263014      20.676914
                         19       1    1fxyz             2.263014      35.813466
                         19       1    1fxz2             2.263014      20.676914
                         19       1    1fy3              2.263014       9.246997
                         19       1    1fy2z             2.263014      20.676914
                         19       1    1fyz2             2.263014      20.676914
                         19       1    1fz3              2.263014       9.246997

                         20       1    1gx4              2.812776      19.123049
                         20       1    1gx3y             2.812776      50.594833
                         20       1    1gx3z             2.812776      50.594833
                         20       1    1gx2y2            2.812776      65.317648
                         20       1    1gx2yz            2.812776     113.133486
                         20       1    1gx2z2            2.812776      65.317648
                         20       1    1gxy3             2.812776      50.594833
                         20       1    1gxy2z            2.812776     113.133486
                         20       1    1gxyz2            2.812776     113.133486
                         20       1    1gxz3             2.812776      50.594833
                         20       1    1gy4              2.812776      19.123049
                         20       1    1gy3z             2.812776      50.594833
                         20       1    1gy2z2            2.812776      65.317648
                         20       1    1gyz3             2.812776      50.594833
                         20       1    1gz4              2.812776      19.123049

                         21       1    1px               3.590642       7.045394
                         21       1    1py               3.590642       7.045394
                         21       1    1pz               3.590642       7.045394

                         22       1    1s                4.179168       2.083183

                         23       1    1fx3              5.448411      66.766969
                         23       1    1fx2y             5.448411     149.295482
                         23       1    1fx2z             5.448411     149.295482
                         23       1    1fxy2             5.448411     149.295482
                         23       1    1fxyz             5.448411     258.587361
                         23       1    1fxz2             5.448411     149.295482
                         23       1    1fy3              5.448411      66.766969
                         23       1    1fy2z             5.448411     149.295482
                         23       1    1fyz2             5.448411     149.295482
                         23       1    1fz3              5.448411      66.766969

                         24       1    1dx2              5.640287      33.977119
                         24       1    1dxy              5.640287      58.850096
                         24       1    1dxz              5.640287      58.850096
                         24       1    1dy2              5.640287      33.977119
                         24       1    1dyz              5.640287      58.850096
                         24       1    1dz2              5.640287      33.977119

                         25       1    1s                9.171527       3.756136

                         26       1    1px              12.325982      32.920544
                         26       1    1py              12.325982      32.920544
                         26       1    1pz              12.325982      32.920544

                         27       1    1dx2             16.935434     232.703555
                         27       1    1dxy             16.935434     403.054381
                         27       1    1dxz             16.935434     403.054381
                         27       1    1dy2             16.935434     232.703555
                         27       1    1dyz             16.935434     403.054381
                         27       1    1dz2             16.935434     232.703555

                         28       1    1s               47.118566      12.817524

                         29       1    1px              49.862265     188.866569
                         29       1    1py              49.862265     188.866569
                         29       1    1pz              49.862265     188.866569

                         30       1    1s              221.309708      40.894080

       Atomic covalent radius [Angstrom]:                                  0.770

       Atomic van der Waals radius [Angstrom]:                             1.700

     The atoms of this atomic kind are PAW atoms (GAPW):
       Hard Gaussian function radius:                                      1.512
       Rho0 radius:                                                        1.512
       Maximum GTO radius used for PAW projector construction:            24.566

     GAPW Soft Basis Set                                            cc-pVQZ_soft

       Number of orbital shell sets:                                           5
       Number of orbital shells:                                              15
       Number of primitive Cartesian functions:                               14
       Number of Cartesian basis functions:                                   70
       Number of spherical basis functions:                                   55
       Norm type:                                                              2

       Normalised Cartesian orbitals:

                        Set   Shell   Orbital            Exponent    Coefficient

                          1       1    1px               2.368000       0.000000
                                                         0.813200       1.100745
                                                         0.289000       0.000000
                                                         0.100700       0.000000
                          1       1    1py               2.368000       0.000000
                                                         0.813200       1.100745
                                                         0.289000       0.000000
                                                         0.100700       0.000000
                          1       1    1pz               2.368000       0.000000
                                                         0.813200       1.100745
                                                         0.289000       0.000000
                                                         0.100700       0.000000

                          1       2    2px               2.368000       0.596637
                                                         0.813200       0.376620
                                                         0.289000       0.140105
                                                         0.100700       0.020217
                          1       2    2py               2.368000       0.596637
                                                         0.813200       0.376620
                                                         0.289000       0.140105
                                                         0.100700       0.020217
                          1       2    2pz               2.368000       0.596637
                                                         0.813200       0.376620
                                                         0.289000       0.140105
                                                         0.100700       0.020217

                          1       3    3px               2.368000       0.000000
                                                         0.813200       0.000000
                                                         0.289000       0.302039
                                                         0.100700       0.000000
                          1       3    3py               2.368000       0.000000
                                                         0.813200       0.000000
                                                         0.289000       0.302039
                                                         0.100700       0.000000
                          1       3    3pz               2.368000       0.000000
                                                         0.813200       0.000000
                                                         0.289000       0.302039
                                                         0.100700       0.000000

                          1       4    4px               2.368000       0.000000
                                                         0.813200       0.000000
                                                         0.289000       0.000000
                                                         0.100700       0.080859
                          1       4    4py               2.368000       0.000000
                                                         0.813200       0.000000
                                                         0.289000       0.000000
                                                         0.100700       0.080859
                          1       4    4pz               2.368000       0.000000
                                                         0.813200       0.000000
                                                         0.289000       0.000000
                                                         0.100700       0.080859

                          2       1    1s                2.530000       0.310322
                                                         0.735500       0.008997
                                                         0.290500      -0.000870
                                                         0.111100       0.000134

                          2       2    2s                2.530000       0.000000
                                                         0.735500       0.566040
                                                         0.290500       0.000000
                                                         0.111100       0.000000

                          2       3    3s                2.530000       0.000000
                                                         0.735500       0.000000
                                                         0.290500       0.282013
                                                         0.111100       0.000000

                          2       4    4s                2.530000      -0.168734
                                                         0.735500       0.154985
                                                         0.290500       0.165404
                                                         0.111100       0.039147

                          2       5    5s                2.530000       0.000000
                                                         0.735500       0.000000
                                                         0.290500       0.000000
                                                         0.111100       0.137150

                          3       1    1dx2              1.848000       4.821009
                                                         0.649000       0.000000
                                                         0.228000       0.000000
                          3       1    1dxy              1.848000       8.350232
                                                         0.649000       0.000000
                                                         0.228000       0.000000
                          3       1    1dxz              1.848000       8.350232
                                                         0.649000       0.000000
                                                         0.228000       0.000000
                          3       1    1dy2              1.848000       4.821009
                                                         0.649000       0.000000
                                                         0.228000       0.000000
                          3       1    1dyz              1.848000       8.350232
                                                         0.649000       0.000000
                                                         0.228000       0.000000
                          3       1    1dz2              1.848000       4.821009
                                                         0.649000       0.000000
                                                         0.228000       0.000000

                          3       2    2dx2              1.848000       0.000000
                                                         0.649000       0.772392
                                                         0.228000       0.000000
                          3       2    2dxy              1.848000       0.000000
                                                         0.649000       1.337822
                                                         0.228000       0.000000
                          3       2    2dxz              1.848000       0.000000
                                                         0.649000       1.337822
                                                         0.228000       0.000000
                          3       2    2dy2              1.848000       0.000000
                                                         0.649000       0.772392
                                                         0.228000       0.000000
                          3       2    2dyz              1.848000       0.000000
                                                         0.649000       1.337822
                                                         0.228000       0.000000
                          3       2    2dz2              1.848000       0.000000
                                                         0.649000       0.772392
                                                         0.228000       0.000000

                          3       3    3dx2              1.848000       0.000000
                                                         0.649000       0.000000
                                                         0.228000       0.123821
                          3       3    3dxy              1.848000       0.000000
                                                         0.649000       0.000000
                                                         0.228000       0.214465
                          3       3    3dxz              1.848000       0.000000
                                                         0.649000       0.000000
                                                         0.228000       0.214465
                          3       3    3dy2              1.848000       0.000000
                                                         0.649000       0.000000
                                                         0.228000       0.123821
                          3       3    3dyz              1.848000       0.000000
                                                         0.649000       0.000000
                                                         0.228000       0.214465
                          3       3    3dz2              1.848000       0.000000
                                                         0.649000       0.000000
                                                         0.228000       0.123821

                          4       1    1fx3              1.419000       3.235302
                                                         0.485000       0.000000
                          4       1    1fx2y             1.419000       7.234355
                                                         0.485000       0.000000
                          4       1    1fx2z             1.419000       7.234355
                                                         0.485000       0.000000
                          4       1    1fxy2             1.419000       7.234355
                                                         0.485000       0.000000
                          4       1    1fxyz             1.419000      12.530271
                                                         0.485000       0.000000
                          4       1    1fxz2             1.419000       7.234355
                                                         0.485000       0.000000
                          4       1    1fy3              1.419000       3.235302
                                                         0.485000       0.000000
                          4       1    1fy2z             1.419000       7.234355
                                                         0.485000       0.000000
                          4       1    1fyz2             1.419000       7.234355
                                                         0.485000       0.000000
                          4       1    1fz3              1.419000       3.235302
                                                         0.485000       0.000000

                          4       2    2fx3              1.419000       0.000000
                                                         0.485000       0.288984
                          4       2    2fx2y             1.419000       0.000000
                                                         0.485000       0.646187
                          4       2    2fx2z             1.419000       0.000000
                                                         0.485000       0.646187
                          4       2    2fxy2             1.419000       0.000000
                                                         0.485000       0.646187
                          4       2    2fxyz             1.419000       0.000000
                                                         0.485000       1.119229
                          4       2    2fxz2             1.419000       0.000000
                                                         0.485000       0.646187
                          4       2    2fy3              1.419000       0.000000
                                                         0.485000       0.288984
                          4       2    2fy2z             1.419000       0.000000
                                                         0.485000       0.646187
                          4       2    2fyz2             1.419000       0.000000
                                                         0.485000       0.646187
                          4       2    2fz3              1.419000       0.000000
                                                         0.485000       0.288984

                          5       1    1gx4              1.011000       1.146835
                          5       1    1gx3y             1.011000       3.034241
                          5       1    1gx3z             1.011000       3.034241
                          5       1    1gx2y2            1.011000       3.917189
                          5       1    1gx2yz            1.011000       6.784770
                          5       1    1gx2z2            1.011000       3.917189
                          5       1    1gxy3             1.011000       3.034241
                          5       1    1gxy2z            1.011000       6.784770
                          5       1    1gxyz2            1.011000       6.784770
                          5       1    1gxz3             1.011000       3.034241
                          5       1    1gy4              1.011000       1.146835
                          5       1    1gy3z             1.011000       3.034241
                          5       1    1gy2z2            1.011000       3.917189
                          5       1    1gyz3             1.011000       3.034241
                          5       1    1gz4              1.011000       1.146835

     AE Potential information for                                            ALL

       Description:                                       All-electron potential
                                          Krack, Parrinello, PCCP 2, 2105 (2000)

       Gaussian exponent of the core charge distribution:               4.109048
       Electronic configuration (s p d ...):                           4   2   0

  2. Atomic kind: li                                    Number of atoms:       5

     Orbital Basis Set                                                   cc-pVQZ

       Number of orbital shell sets:                                           5
       Number of orbital shells:                                              15
       Number of primitive Cartesian functions:                               24
       Number of Cartesian basis functions:                                   70
       Number of spherical basis functions:                                   55
       Norm type:                                                              2

       Normalised Cartesian orbitals:

                        Set   Shell   Orbital            Exponent    Coefficient

                          1       1    1px               6.250000       0.000000
                                                         1.370000       0.000000
                                                         0.367200       0.000000
                                                         0.119200       0.099836
                                                         0.044740       0.000000
                                                         0.017950       0.000000
                          1       1    1py               6.250000       0.000000
                                                         1.370000       0.000000
                                                         0.367200       0.000000
                                                         0.119200       0.099836
                                                         0.044740       0.000000
                                                         0.017950       0.000000
                          1       1    1pz               6.250000       0.000000
                                                         1.370000       0.000000
                                                         0.367200       0.000000
                                                         0.119200       0.099836
                                                         0.044740       0.000000
                                                         0.017950       0.000000

                          1       2    2px               6.250000       0.047724
                                                         1.370000       0.040809
                                                         0.367200       0.032230
                                                         0.119200       0.027364
                                                         0.044740       0.015237
                                                         0.017950       0.002664
                          1       2    2py               6.250000       0.047724
                                                         1.370000       0.040809
                                                         0.367200       0.032230
                                                         0.119200       0.027364
                                                         0.044740       0.015237
                                                         0.017950       0.002664
                          1       2    2pz               6.250000       0.047724
                                                         1.370000       0.040809
                                                         0.367200       0.032230
                                                         0.119200       0.027364
                                                         0.044740       0.015237
                                                         0.017950       0.002664

                          1       3    3px               6.250000       0.000000
                                                         1.370000       0.000000
                                                         0.367200       0.000000
                                                         0.119200       0.000000
                                                         0.044740       0.029330
                                                         0.017950       0.000000
                          1       3    3py               6.250000       0.000000
                                                         1.370000       0.000000
                                                         0.367200       0.000000
                                                         0.119200       0.000000
                                                         0.044740       0.029330
                                                         0.017950       0.000000
                          1       3    3pz               6.250000       0.000000
                                                         1.370000       0.000000
                                                         0.367200       0.000000
                                                         0.119200       0.000000
                                                         0.044740       0.029330
                                                         0.017950       0.000000

                          1       4    4px               6.250000       0.000000
                                                         1.370000       0.000000
                                                         0.367200       0.000000
                                                         0.119200       0.000000
                                                         0.044740       0.000000
                                                         0.017950       0.009365
                          1       4    4py               6.250000       0.000000
                                                         1.370000       0.000000
                                                         0.367200       0.000000
                                                         0.119200       0.000000
                                                         0.044740       0.000000
                                                         0.017950       0.009365
                          1       4    4pz               6.250000       0.000000
                                                         1.370000       0.000000
                                                         0.367200       0.000000
                                                         0.119200       0.000000
                                                         0.044740       0.000000
                                                         0.017950       0.009365

                          2       1    1s             6601.000000       0.061066
                                                       989.700000       0.114566
                                                       225.700000       0.196217
                                                        64.290000       0.310635
                                                        21.180000       0.443628
                                                         7.724000       0.538931
                                                         3.003000       0.511857
                                                         1.212000       0.324312
                                                         0.493000       0.082572
                                                         0.095150       0.001221
                                                         0.047910      -0.000394
                                                         0.022200       0.000070

                          2       2    2s             6601.000000       0.000000
                                                       989.700000       0.000000
                                                       225.700000       0.000000
                                                        64.290000       0.000000
                                                        21.180000       0.000000
                                                         7.724000       0.000000
                                                         3.003000       0.000000
                                                         1.212000       0.000000
                                                         0.493000       0.000000
                                                         0.095150       0.122100
                                                         0.047910       0.000000
                                                         0.022200       0.000000

                          2       3    3s             6601.000000       0.000000
                                                       989.700000       0.000000
                                                       225.700000       0.000000
                                                        64.290000       0.000000
                                                        21.180000       0.000000
                                                         7.724000       0.000000
                                                         3.003000       0.000000
                                                         1.212000       0.000000
                                                         0.493000       0.000000
                                                         0.095150       0.000000
                                                         0.047910       0.072984
                                                         0.022200       0.000000

                          2       4    4s             6601.000000      -0.009395
                                                       989.700000      -0.017858
                                                       225.700000      -0.030752
                                                        64.290000      -0.048868
                                                        21.180000      -0.071230
                                                         7.724000      -0.089467
                                                         3.003000      -0.093256
                                                         1.212000      -0.077300
                                                         0.493000      -0.050776
                                                         0.095150       0.033774
                                                         0.047910       0.040108
                                                         0.022200       0.011370

                          2       5    5s             6601.000000       0.000000
                                                       989.700000       0.000000
                                                       225.700000       0.000000
                                                        64.290000       0.000000
                                                        21.180000       0.000000
                                                         7.724000       0.000000
                                                         3.003000       0.000000
                                                         1.212000       0.000000
                                                         0.493000       0.000000
                                                         0.095150       0.000000
                                                         0.047910       0.000000
                                                         0.022200       0.040990

                          3       1    1dx2              0.335200       0.243048
                                                         0.148200       0.000000
                                                         0.065600       0.000000
                          3       1    1dxy              0.335200       0.420971
                                                         0.148200       0.000000
                                                         0.065600       0.000000
                          3       1    1dxz              0.335200       0.420971
                                                         0.148200       0.000000
                                                         0.065600       0.000000
                          3       1    1dy2              0.335200       0.243048
                                                         0.148200       0.000000
                                                         0.065600       0.000000
                          3       1    1dyz              0.335200       0.420971
                                                         0.148200       0.000000
                                                         0.065600       0.000000
                          3       1    1dz2              0.335200       0.243048
                                                         0.148200       0.000000
                                                         0.065600       0.000000

                          3       2    2dx2              0.335200       0.000000
[...]
 cp_fm_redistribute_end             122  8.0    3.172    6.244    3.179    6.252
 cp_fm_syevd_base                   122  8.0    3.068    6.144    3.068    6.144
 rs_gather_matrices                 117 10.0    0.011    0.023    5.064    5.750
 qs_scf_new_mos                     116  5.0    0.002    0.002    5.692    5.718
 grid_integrate_task_list           117 10.0    0.664    5.695    0.664    5.695
 put_rho0_on_grid                   117  9.0    0.265    0.317    5.350    5.449
 transfer_pw2rs_250                 235 11.0    1.596    1.770    4.946    5.248
 calculate_rho_atom                 351  9.0    1.322    5.165    1.322    5.166
 mp_waitall_1                    121114 12.0    3.970    5.138    3.970    5.138
 mp2_ri_gpw_compute_in                1  5.0    0.001    0.005    5.075    5.075
 mp2_ri_gpw_compute_in_loop           1  6.0    0.000    0.000    5.044    5.044
 contract_B_L                         4  7.0    0.006    0.008    4.611    4.934
 eigensolver_symm                   117  6.0    0.004    0.004    4.860    4.867
 integrate_vhg0_rspace              117  8.0    0.270    0.316    4.450    4.484
 mp_sum_dv                        21538 10.8    4.075    4.265    4.075    4.265
 dbt_total                            8  8.0    0.000    0.000    3.567    3.567
 dbt_contract                         4  9.0    0.001    0.001    2.572    3.519
 mp_cart_create                     641  9.7    2.901    3.263    2.902    3.264
 dbt_pgrid_create_expert             84 10.8    0.000    0.000    2.867    3.229
 powell_optimize                1224046 11.0    3.022    3.143    3.022    3.143
 xc_functional_eval                 812 10.9    0.001    0.004    2.020    2.735
 pbe_lda_eval                       812 11.9    2.019    2.731    2.019    2.731
 mp_alltoall_d45                    118 10.0    1.233    2.672    1.233    2.672
 transfer_pw2rs_30                  117 12.0    1.076    1.178    2.419    2.650
 transfer_rs2pw_30                  117  9.0    1.112    1.179    2.505    2.549
 fft_wrap_pw1pw2_90                 234 10.5    0.040    0.053    1.022    2.204
 start_bse_calculation                1  7.0    0.000    0.001    2.199    2.199
 transfer_rs2pw_90                  117  9.0    0.343    0.430    1.426    2.151
 cp2k_distribution_to_z_slices      117  9.0    0.537    0.593    1.325    2.044
 dbt_copy                            12 10.1    0.000    0.001    0.164    2.014
 calc_pair_dist_radii                 1 10.0    0.648    0.666    1.913    2.013
 dbt_reshape                          8 11.6    0.023    0.029    0.121    1.971
 mp_isendrecv_dv                 100620 12.0    0.921    1.961    0.921    1.961
 dbt_remap                            8 10.0    0.002    0.003    1.957    1.958
 mp_sum_dm                         2578  7.6    1.818    1.957    1.818    1.957
 mp_waitall_2                        50 15.7    0.096    1.946    0.096    1.946
 dbt_communicate_buffer               8 12.6    0.002    0.002    0.087    1.933
 mp_sendrecv_dv                   50310 10.0    1.857    1.927    1.857    1.927
 dbt_nd_mp_comm                       8 11.0    0.000    0.000    1.865    1.917
 create_qs_kind_set                   1  2.0    0.000    0.000    1.870    1.871
 read_qs_kind                         3  3.0    1.040    1.063    1.870    1.871
 pw_scatter_p                      1281 12.1    1.631    1.699    1.631    1.699
 rs_grid_zero                       587 11.2    1.558    1.620    1.558    1.620
 transfer_pw2rs_90                  117 12.0    0.351    0.412    1.449    1.606
 integrate_four_center_getP         117 10.0    0.056    0.062    1.582    1.600
 pw_gather_p                       1167 11.8    1.324    1.573    1.324    1.573
 Vh_1c_gg_integrals                 117  8.0    0.019    0.613    0.714    1.533
 integrate_four_center_dist_KS      117 10.0    0.050    0.056    1.416    1.420
 mp2_eri_3c_integrate                 1  7.0    0.003    0.004    0.354    1.320
 integrate_set_3c                  2644  8.0    0.317    1.197    0.351    1.317
 pw_derive                         1047 11.3    1.117    1.202    1.117    1.202
 qs_energies_init_hamiltonians        1  3.0    0.000    0.000    1.131    1.131
 build_core_hamiltonian_matrix        1  4.0    0.000    0.000    1.119    1.119
 overlap_condnum                      1  5.0    0.000    0.001    1.114    1.117
 pw_integral_ab_c1d_c1d_gs          117  9.0    0.378    0.384    0.528    1.047
 arnoldi_conjugate_gradient           5  6.0    0.023    0.027    1.035    1.035
 mp_sum_l                          1167  6.7    0.772    1.034    0.772    1.034
 create_hermitian_form_of_ABBA        1  8.0    0.000    0.000    1.018    1.020
 integrate_four_center_load         117 10.0    0.001    0.001    0.745    1.002
 hfx_load_balance                     1 11.0    0.000    0.000    0.745    1.001
 mp_max_i                           635  3.4    0.261    0.991    0.261    0.991
 diagonalize_C                        1  8.0    0.000    0.000    0.986    0.986
 hfx_load_balance_range               1 12.0    0.000    0.000    0.725    0.982
 mp_alltoall_z11v                   468 13.5    0.764    0.979    0.764    0.979
 cp_fm_power                          2  7.5    0.012    0.020    0.950    0.951
 pw_copy                           1750 10.6    0.839    0.919    0.839    0.919
 fft_wrap_pw1pw2_10                 234 10.5    0.002    0.003    0.823    0.868
 rpa_num_int_RPA_matrix_operati     100  7.0    0.001    0.004    0.855    0.857
 mp_irecv_dm3                      4224 11.5    0.283    0.854    0.283    0.854
 parser_read_line                220631  4.0    0.078    0.084    0.830    0.840
 xz_to_yz                           234 11.0    0.014    0.016    0.603    0.803
 transfer_pw2rs_10                  117 12.0    0.280    0.349    0.763    0.790
 parser_read_line_low               237  5.0    0.073    0.322    0.752    0.763
 transfer_rs2pw_10                  117  9.0    0.285    0.306    0.748    0.760
 fft_wrap_pw1pw2_30                 234 10.5    0.007    0.007    0.436    0.735
 pw_poisson_set                     118  9.0    0.003    0.004    0.699    0.727
 cube_transpose_2                   234 11.0    0.005    0.005    0.235    0.700
 broadcast_input_information        237  6.0    0.180    0.202    0.679    0.693
 dbcsr_sym_matrix_vector_mult      3394  7.0    0.053    0.058    0.474    0.653
 compute_vec_Sigma_x_minus_vxc_       1  4.0    0.000    0.000    0.637    0.637
 pw_poisson_rebuild                 117  9.0    0.000    0.000    0.574    0.600
 ps_wavelet_create                    1 10.0    0.000    0.000    0.574    0.600
 RS_z_slice_distribution              1 11.0    0.503    0.590    0.574    0.600
 mp_rank_compare                   2448 12.9    0.580    0.593    0.580    0.593
 calculate_dm_sparse                116  6.0    0.001    0.001    0.546    0.578
 cp_dbcsr_plus_fm_fm_t              116  7.0    0.002    0.003    0.545    0.575
 dbt_tas_multiply                     8 11.5    0.000    0.000    0.573    0.573
 dbt_tas_total                        8 12.5    0.002    0.002    0.572    0.572
 pw_copy_to_array                  1167 11.8    0.445    0.544    0.445    0.544
 calculate_rho_atom_coeff           117  6.0    0.034    0.092    0.533    0.535
 mp_isend_dm3                      4224 11.5    0.264    0.529    0.264    0.529
 calc_mat_Q                         100  8.0    0.000    0.000    0.467    0.473
 contract_S_to_Q                    100  9.0    0.001    0.001    0.455    0.462
 mp_sum_i                            21  9.7    0.268    0.444    0.268    0.444
 restraint_control                    1  2.0    0.000    0.000    0.267    0.442
 mp2_main_alloc_hfx                   1  4.0    0.176    0.442    0.176    0.442
 pw_copy_from_array                1281 12.1    0.330    0.436    0.330    0.436
 dbcsr_multiply_generic             153  8.1    0.008    0.010    0.401    0.434
 pw_axpy                           1165  9.3    0.378    0.427    0.378    0.427
 cp_fm_cholesky_invert              101  8.0    0.374    0.398    0.374    0.398
 cp_fm_cholesky_decompose           102  9.0    0.376    0.385    0.376    0.385
 dbt_tas_dbm                          8 13.5    0.000    0.000    0.383    0.383
 compute_Erpa_by_freq_int           100  8.0    0.001    0.002    0.371    0.372
 dbm_multiply                         8 15.5    0.278    0.352    0.278    0.352
 dbt_tas_mm_1N                        6 14.5    0.000    0.000    0.277    0.350
 dbcsr_complete_redistribute        379  8.4    0.025    0.032    0.332    0.341
 mp_bcast_i_src                     948  7.0    0.246    0.340    0.246    0.340
 init_scf_run                         1  3.0    0.000    0.001    0.325    0.326
 mp_isend_dv                      35431 11.7    0.241    0.322    0.241    0.322
 dbcsr_add_d                       5193  7.0    0.005    0.006    0.042    0.315
 dbcsr_add_anytype                 5193  8.0    0.006    0.042    0.037    0.310
 mp_bcast_am_src                    237  7.0    0.226    0.269    0.249    0.300
 copy_dbcsr_to_fm                   143  6.3    0.003    0.003    0.286    0.296
 scf_env_initial_rho_setup            1  4.0    0.000    0.000    0.275    0.276
 dbcsr_rep_row_to_rep_col_vec      3394  8.0    0.017    0.022    0.094    0.265
 update_ks_atom                     117  8.0    0.021    0.053    0.218    0.261
 calculate_rho0_atom                351  9.0    0.248    0.258    0.248    0.258
 pw_zero                            698 10.3    0.227    0.254    0.227    0.254
 dbt_tas_estimate_result_nze          4 12.0    0.003    0.004    0.248    0.248
 dbcsr_col_vec_to_rep_row          3394  8.0    0.023    0.029    0.126    0.239
 qs_init_subsys                       1  2.0    0.005    0.006    0.229    0.229
 dbcsr_finalize                    7656 10.8    0.014    0.073    0.050    0.219
 vxc_of_r_new                       696  9.0    0.000    0.033    0.002    0.219
 yz_to_xz                           234 14.0    0.022    0.024    0.197    0.218
 mp_bcast_dm                       1638  9.0    0.197    0.217    0.197    0.217
 multiply_cannon                    153  9.1    0.018    0.019    0.186    0.215
 copy_fm_to_dbcsr                   236  8.0    0.001    0.001    0.190    0.199
 qs_env_setup                         1  3.0    0.000    0.000    0.184    0.192
 qs_env_rebuild_pw_env                2  3.5    0.000    0.000    0.182    0.191
 pw_env_rebuild                       1  5.0    0.001    0.001    0.182    0.190
 multiply_cannon_loop               153 10.1    0.028    0.029    0.143    0.175
 make_m2s                           306  9.1    0.008    0.009    0.159    0.169
 cp_fm_redistribute_start           122  8.0    0.115    0.118    0.151    0.163
 cp_fm_symm                         117  7.0    0.142    0.150    0.142    0.150
 create_integ_mat                     4  6.0    0.001    0.001    0.132    0.150
 array2fm                             4  7.0    0.000    0.000    0.110    0.145
 mp_bcast_dv                       3516  9.0    0.054    0.143    0.054    0.143
 dbcsr_desymmetrize_deep            145  7.3    0.006    0.008    0.128    0.137
 pw_grid_setup                        4  6.0    0.000    0.000    0.125    0.133
 pw_grid_setup_internal               4  7.0    0.003    0.004    0.125    0.133
 scale_and_distribute               234 10.0    0.112    0.124    0.112    0.124
 abc_contract                      2644  9.0    0.034    0.123    0.034    0.123
 mp_alltoall_i11v                  1282  9.3    0.114    0.121    0.114    0.121
 cp_fm_to_fm_submat_general         112 10.1    0.099    0.113    0.099    0.113
 mp_alltoall_i22                    524  9.1    0.091    0.107    0.091    0.107
 dbcsr_merge_all                   6311 11.5    0.018    0.085    0.027    0.106
 pw_scale                           465  9.5    0.079    0.102    0.079    0.102
 make_images                        306 10.1    0.019    0.021    0.087    0.096
 dbcsr_iterator_start             43563  8.8    0.052    0.080    0.061    0.096
 dbt_tas_replicate                    8 13.5    0.036    0.055    0.088    0.094
 dbcsr_copy                       14615  7.6    0.052    0.057    0.085    0.092
 array2fm_info                        4  8.0    0.055    0.082    0.058    0.083
 set_mo_occupation_1                117  7.0    0.079    0.081    0.079    0.081
 set_mo_occupation_2                116  6.0    0.000    0.000    0.079    0.081
 create_A                             1  8.0    0.001    0.001    0.079    0.081
 hybrid_alltoall_any                451 10.9    0.015    0.016    0.066    0.077
 mp_irecv_dv                      35355 11.7    0.039    0.076    0.039    0.076
 create_B                             1  8.0    0.000    0.000    0.071    0.074
 pw_grid_sort                         4  8.0    0.043    0.045    0.067    0.071
 rs_scatter_matrices                117  7.0    0.001    0.005    0.062    0.069
 dbcsr_create_new                 18443  9.0    0.050    0.053    0.062    0.066
 scf_post_calculation_gpw             1  3.0    0.000    0.000    0.065    0.066
 dbcsr_sym_matrix_vector_mult_l    3394  8.0    0.015    0.056    0.026    0.066
 write_available_results              1  4.0    0.000    0.000    0.065    0.065
 write_mo_free_results                1  5.0    0.003    0.004    0.065    0.065
 dbcsr_iterator_stop              43563  8.8    0.039    0.055    0.047    0.065
 multiply_cannon_metrocomm3        4388 11.1    0.007    0.008    0.027    0.064
 mixing_init                          1  5.0    0.041    0.060    0.060    0.061
 cp_fm_uplo_to_full                 103  8.0    0.017    0.061    0.017    0.061
 postprocess_bse                      1  9.0    0.000    0.000    0.060    0.060
 dbt_split_blocks_generic            20  8.8    0.016    0.019    0.057    0.059
 self_consistency_check             116  5.0    0.000    0.000    0.037    0.058
 cp_sm_mix                          116  6.0    0.000    0.003    0.036    0.058
 mp_max_d                           118  6.9    0.036    0.057    0.036    0.057
 dbm_reserve_blocks                  71 14.2    0.050    0.054    0.050    0.054
 dbt_distribution_new_expert         76 10.1    0.001    0.002    0.046    0.049
 multiply_cannon_metrocomm1        4388 11.1    0.005    0.005    0.018    0.048
 mp_bcast_iv                        294  6.8    0.023    0.047    0.023    0.047
 compute_max_radius                   1  6.0    0.046    0.047    0.046    0.047
 create_fast_col_vec_access        6788  8.0    0.027    0.031    0.042    0.047
 mp_maxloc_dv                      1529  1.0    0.043    0.047    0.043    0.047
 create_fast_row_vec_access        6788  8.0    0.027    0.031    0.042    0.046
 mp_comm_split_direct                48 14.5    0.031    0.046    0.031    0.046
 dbcsr_crop_matrix                  585 10.0    0.004    0.004    0.042    0.046
 mp_cart_rank                    150348 10.3    0.037    0.043    0.037    0.043
 multiply_cannon_multrec           4388 11.1    0.021    0.041    0.022    0.042
 mp_sum_iv                          403  9.4    0.034    0.042    0.034    0.042
 array2fm_fill                        4  8.0    0.012    0.024    0.019    0.042
 dbt_tas_reserve_blocks_index        63 13.1    0.001    0.001    0.037    0.041
 dbt_tas_reshape                     10 13.8    0.000    0.000    0.036    0.041
 cp_fm_syrk                           2  8.5    0.039    0.041    0.039    0.041
 init_rho_atom                        1  3.0    0.001    0.001    0.034    0.039
 multiply_cannon_metrocomm4        4114 11.1    0.012    0.013    0.025    0.038
 write_mo_set_to_restart            116  5.0    0.002    0.009    0.012    0.037
 dbcsr_work_create                 7125 10.6    0.006    0.023    0.009    0.036
 dbcsr_copy_submatrix               585 11.0    0.005    0.006    0.032    0.035
 cube_transpose_1                   234 14.0    0.004    0.004    0.031    0.035
 make_images_sizes                  306 11.1    0.000    0.000    0.031    0.035
 mp2_main_free_hfx                    1  4.0    0.015    0.035    0.015    0.035
 mp_alltoall_i44                    306 12.1    0.031    0.035    0.031    0.035
 fm_general_add_bse                   5 10.2    0.000    0.000    0.030    0.034
 create_harmonics_atom                3  4.0    0.029    0.034    0.029    0.034
 dbt_tas_distribution_new            99 11.9    0.023    0.023    0.033    0.033
 mult_B_with_W                        1  8.0    0.000    0.000    0.026    0.033
 dbcsr_work_destroy_all            7125 11.6    0.006    0.024    0.008    0.033
 write_mo_set_low                     6  6.0    0.000    0.000    0.010    0.032
 cp_fm_write_unformatted              6  7.0    0.009    0.025    0.010    0.032
 hirshfeld_integration                1  6.0    0.002    0.009    0.031    0.032
 mp_alltoall_i                       41 13.9    0.023    0.031    0.023    0.031
 make_images_data                   306 11.1    0.004    0.005    0.021    0.031
 mp_wait                            137  9.0    0.006    0.031    0.006    0.031
 multiply_cannon_metrocomm2        3993 11.1    0.012    0.012    0.022    0.030
 dbt_reserve_blocks_index            36 10.8    0.001    0.001    0.025    0.029
 dbt_tas_communicate_buffer          18 15.7    0.002    0.002    0.021    0.029
 print_transition_amplitudes          1 10.0    0.000    0.000    0.029    0.029
 print_transition_amplitudes_co      50 11.0    0.000    0.001    0.029    0.029
 filter_eigvec_contrib               50 12.0    0.016    0.017    0.029    0.029
 offload_free_buffer                125  8.6    0.001    0.029    0.001    0.029
 sort_shells                          4  9.0    0.024    0.029    0.024    0.029
 xc_pw_smooth                       116 10.0    0.000    0.000    0.024    0.028
 array2fm_buffer_send                 4  8.0    0.026    0.028    0.026    0.028
 get_2c_integrals                     1  6.0    0.000    0.000    0.027    0.028
 dbcsr_data_release               92371 10.2    0.017    0.028    0.017    0.028
 allocate_matrices_gw                 1  7.0    0.000    0.000    0.022    0.028
 get_multipoles_mo                    1 10.0    0.000    0.001    0.027    0.027
 mp_cart_sub                        292  8.4    0.027    0.027    0.027    0.027
 dbcsr_scale_anytype               5196  9.0    0.010    0.011    0.025    0.027
 get_vec_sigma_x                      1  8.0    0.000    0.000    0.021    0.027
 calculate_hirshfeld_normalizat       1  6.0    0.002    0.009    0.025    0.027
 dbt_reserve_blocks_index_array      28 10.6    0.000    0.000    0.023    0.026
 array2fm_waitall                     4  8.0    0.000    0.000    0.002    0.026
 ao_to_mo_and_store_B_mult_gw_1       4  7.0    0.000    0.000    0.018    0.026
 dbt_create_new                      40  9.5    0.001    0.001    0.024    0.025
 mp_min_d                             1  6.0    0.019    0.024    0.019    0.024
 Q_trace_and_add_unit_matrix        100  8.0    0.001    0.002    0.016    0.023
 dbt_split_copyback                   4 10.0    0.014    0.018    0.021    0.023
 dbt_tas_replicate_communicate_       6 14.5    0.000    0.000    0.015    0.023
 -------------------------------------------------------------------------------

 The number of warnings for this run is : 3
 
 -------------------------------------------------------------------------------
  **** **** ******  **  PROGRAM ENDED AT                 2025-04-12 02:58:03.062
 ***** ** ***  *** **   PROGRAM RAN ON                              i04r02c04s04
 **    ****   ******    PROGRAM RAN BY                                   di38fab
 ***** **    ** ** **   PROGRAM PROCESS ID                               1250934
  **** **  *******  **  PROGRAM STOPPED IN /hppfs/scratch/04/di38fab/07_MOL_non_
                                           aug/05_MOL_non_aug/05_MOL/W4-11+ALK/l
                                           i5_ch/cc-pVQZ/GW+BSE
