 DBCSR| CPU Multiplication driver                                           BLAS (U)
 DBCSR| Multrec recursion limit                                              512 (U)
 DBCSR| Multiplication stack size                                           1000 (D)
 DBCSR| Maximum elements for images                                    UNLIMITED (U)
 DBCSR| Multiplicative factor virtual images                                   1 (U)
 DBCSR| Use multiplication densification                                       T (D)
 DBCSR| Multiplication size stacks                                             3 (U)
 DBCSR| Use memory pool for CPU allocation                                     F (U)
 DBCSR| Number of 3D layers                                               SINGLE (U)
 DBCSR| Use MPI memory allocation                                              F (U)
 DBCSR| Use RMA algorithm                                                      F (U)
 DBCSR| Use Communication thread                                               T (U)
 DBCSR| Communication thread load                                             75 (D)
 DBCSR| MPI: My process id                                                     0
 DBCSR| MPI: Number of processes                                              96
 DBCSR| OMP: Current number of threads                                         4
 DBCSR| OMP: Max number of threads                                             4
 DBCSR| Split modifier for TAS multiplication algorithm                  1.0E+00 (U)


  **** **** ******  **  PROGRAM STARTED AT               2025-04-23 18:44:52.557
 ***** ** ***  *** **   PROGRAM STARTED ON                          i03r10c01s12
 **    ****   ******    PROGRAM STARTED BY                               di38fab
 ***** **    ** ** **   PROGRAM PROCESS ID                                770323
  **** **  *******  **  PROGRAM STARTED IN /hppfs/scratch/04/di38fab/07_MOL_non_
                                           aug/05_MOL_non_aug/05_MOL/W4-11+ALK/n
                                           a8/cc-pVDZ/TDDFT

 CP2K| version string:                 CP2K version 2025.1 (Development Version)
 CP2K| source code revision number:                             unknown revision
 CP2K| cp2kflags: omp libint fftw3 libxc parallel scalapack max_contr=4         
 CP2K| is freely available from                            https://www.cp2k.org/
 CP2K| Program compiled at                         Thu Apr 10 16:20:23 CEST 2025
 CP2K| Program compiled on                                               login01
 CP2K| Program compiled for                                        Supermuc-foss
 CP2K| Data directory path                  /hppfs/work/pn36zo/di38fab/cp2k/data
 CP2K| Input file name                                                    GW.inp

 GLOBAL| Force Environment number                                              1
 GLOBAL| Basis set file name            /hppfs/scratch/04/di38fab/04_TMD/BASIS_A
 GLOBAL| Potential file name            /hppfs/work/pn36zo/di38fab/cp2k/data/ALL
 GLOBAL| MM Potential file name                                     MM_POTENTIAL
 GLOBAL| Coordinate file name                                      __STD_INPUT__
 GLOBAL| Method name                                                        CP2K
 GLOBAL| Project name                                                       MoS2
 GLOBAL| Run type                                                         ENERGY
 GLOBAL| FFT library                                                       FFTW3
 GLOBAL| Diagonalization library                                       ScaLAPACK
 GLOBAL| DGEMM library                                                      BLAS
 GLOBAL| Orthonormality check for eigenvectors                          DISABLED
 GLOBAL| Matrix multiplication library                                 ScaLAPACK
 GLOBAL| All-to-all communication in single precision                          F
 GLOBAL| FFTs using library dependent lengths                                  F
 GLOBAL| Grid backend                                                       AUTO
 GLOBAL| Global print level                                               MEDIUM
 GLOBAL| MPI I/O enabled                                                       T
 GLOBAL| Total number of message passing processes                            96
 GLOBAL| Number of threads for this process                                    4
 GLOBAL| This output is from process                                           0
 GLOBAL| OpenMP stack size per thread (OMP_STACKSIZE)                    default
 GLOBAL| CPU model name             Intel(R) Xeon(R) Platinum 8174 CPU @ 3.10GHz

 MEMORY| system memory details [Kb]
 MEMORY|                        rank 0           min           max       average
 MEMORY| MemTotal             98436660      98436660      98436708      98436666
 MEMORY| MemFree              85048984      84805460      85167140      85026368
 MEMORY| Buffers                     0             0             0             0
 MEMORY| Cached                2385216       2370420       2392120       2381818
 MEMORY| Slab                  1107548       1097216       1142340       1117665
 MEMORY| SReclaimable           251248        251248        256292        254079
 MEMORY| MemLikelyFree        87685448      87449944      87809844      87662265


 *** Fundamental physical constants (SI units) ***

 *** Literature: B. J. Mohr and B. N. Taylor,
 ***             CODATA recommended values of the fundamental physical
 ***             constants: 2006, Web Version 5.1
 ***             http://physics.nist.gov/constants

 Speed of light in vacuum [m/s]                             2.99792458000000E+08
 Magnetic constant or permeability of vacuum [N/A**2]       1.25663706143592E-06
 Electric constant or permittivity of vacuum [F/m]          8.85418781762039E-12
 Planck constant (h) [J*s]                                  6.62606896000000E-34
 Planck constant (h-bar) [J*s]                              1.05457162825177E-34
 Elementary charge [C]                                      1.60217648700000E-19
 Electron mass [kg]                                         9.10938215000000E-31
 Electron g factor [ ]                                     -2.00231930436220E+00
 Proton mass [kg]                                           1.67262163700000E-27
 Fine-structure constant                                    7.29735253760000E-03
 Rydberg constant [1/m]                                     1.09737315685270E+07
 Avogadro constant [1/mol]                                  6.02214179000000E+23
 Boltzmann constant [J/K]                                   1.38065040000000E-23
 Atomic mass unit [kg]                                      1.66053878200000E-27
 Bohr radius [m]                                            5.29177208590000E-11

 *** Conversion factors ***

 [u] -> [a.u.]                                              1.82288848426455E+03
 [Angstrom] -> [Bohr] = [a.u.]                              1.88972613288564E+00
 [a.u.] = [Bohr] -> [Angstrom]                              5.29177208590000E-01
 [a.u.] -> [s]                                              2.41888432650478E-17
 [a.u.] -> [fs]                                             2.41888432650478E-02
 [a.u.] -> [J]                                              4.35974393937059E-18
 [a.u.] -> [N]                                              8.23872205491840E-08
 [a.u.] -> [K]                                              3.15774647902944E+05
 [a.u.] -> [kJ/mol]                                         2.62549961709828E+03
 [a.u.] -> [kcal/mol]                                       6.27509468713739E+02
 [a.u.] -> [Pa]                                             2.94210107994716E+13
 [a.u.] -> [bar]                                            2.94210107994716E+08
 [a.u.] -> [atm]                                            2.90362800883016E+08
 [a.u.] -> [eV]                                             2.72113838565563E+01
 [a.u.] -> [Hz]                                             6.57968392072181E+15
 [a.u.] -> [1/cm] (wave numbers)                            2.19474631370540E+05
 [a.u./Bohr**2] -> [1/cm]                                   5.14048714338585E+03
 

 CELL_TOP| Volume [angstrom^3]:                                     27000.000000
 CELL_TOP| Vector a [angstrom    30.000     0.000     0.000   |a| =    30.000000
 CELL_TOP| Vector b [angstrom     0.000    30.000     0.000   |b| =    30.000000
 CELL_TOP| Vector c [angstrom     0.000     0.000    30.000   |c| =    30.000000
 CELL_TOP| Angle (b,c), alpha [degree]:                                90.000000
 CELL_TOP| Angle (a,c), beta  [degree]:                                90.000000
 CELL_TOP| Angle (a,b), gamma [degree]:                                90.000000
 CELL_TOP| Numerically orthorhombic:                                         YES
 CELL_TOP| Periodicity                                                      NONE

 GENERATE|  Preliminary Number of Bonds generated:                             0
 GENERATE|  Achieved consistency in connectivity generation.

 CELL| Volume [angstrom^3]:                                         27000.000000
 CELL| Vector a [angstrom]:      30.000     0.000     0.000   |a| =    30.000000
 CELL| Vector b [angstrom]:       0.000    30.000     0.000   |b| =    30.000000
 CELL| Vector c [angstrom]:       0.000     0.000    30.000   |c| =    30.000000
 CELL| Angle (b,c), alpha [degree]:                                    90.000000
 CELL| Angle (a,c), beta  [degree]:                                    90.000000
 CELL| Angle (a,b), gamma [degree]:                                    90.000000
 CELL| Numerically orthorhombic:                                             YES
 CELL| Periodicity                                                          NONE

 CELL_REF| Volume [angstrom^3]:                                     27000.000000
 CELL_REF| Vector a [angstrom    30.000     0.000     0.000   |a| =    30.000000
 CELL_REF| Vector b [angstrom     0.000    30.000     0.000   |b| =    30.000000
 CELL_REF| Vector c [angstrom     0.000     0.000    30.000   |c| =    30.000000
 CELL_REF| Angle (b,c), alpha [degree]:                                90.000000
 CELL_REF| Angle (a,c), beta  [degree]:                                90.000000
 CELL_REF| Angle (a,b), gamma [degree]:                                90.000000
 CELL_REF| Numerically orthorhombic:                                         YES
 CELL_REF| Periodicity                                                      NONE

 *******************************************************************************
 *******************************************************************************
 **                                                                           **
 **     #####                         ##              ##                      **
 **    ##   ##            ##          ##              ##                      **
 **   ##     ##                       ##            ######                    **
 **   ##     ##  ##   ##  ##   #####  ##  ##   ####   ##    #####    #####    **
 **   ##     ##  ##   ##  ##  ##      ## ##   ##      ##   ##   ##  ##   ##   **
 **   ##  ## ##  ##   ##  ##  ##      ####     ###    ##   ######   ######    **
 **    ##  ###   ##   ##  ##  ##      ## ##      ##   ##   ##       ##        **
 **     #######   #####   ##   #####  ##  ##  ####    ##    #####   ##        **
 **           ##                                                    ##        **
 **                                                                           **
 **                                                ... make the atoms dance   **
 **                                                                           **
 **            Copyright (C) by CP2K developers group (2000-2025)             **
 **                      J. Chem. Phys. 152, 194103 (2020)                    **
 **                                                                           **
 *******************************************************************************

 DFT| Spin restricted Kohn-Sham (RKS) calculation                            RKS
 DFT| Multiplicity                                                             1
 DFT| Number of spin states                                                    1
 DFT| Charge                                                                   0
 DFT| Self-interaction correction (SIC)                                       NO
 DFT| Cutoffs: density                                              1.000000E-10
 DFT|          gradient                                             1.000000E-10
 DFT|          tau                                                  1.000000E-10
 DFT|          cutoff_smoothing_range                               0.000000E+00
 DFT| XC density smoothing                                                  NONE
 DFT| XC derivatives                                                          PW

 FUNCTIONAL| PBE:
 FUNCTIONAL| J.P.Perdew, K.Burke, M.Ernzerhof, Phys. Rev. Letter, vol. 77, n 18,
 FUNCTIONAL|  pp. 3865-3868, (1996)sx=0.750sc=1.000{spin unpolarized}           


 QS| Method:                                                                GAPW
 QS| Density plane wave grid type                        NON-SPHERICAL FULLSPACE
 QS| Number of grid levels:                                                    4
 QS| Density cutoff [a.u.]:                                                250.0
 QS| Multi grid cutoff [a.u.]: 1) grid level                               250.0
 QS|                           2) grid level                                83.3
 QS|                           3) grid level                                27.8
 QS|                           4) grid level                                 9.3
 QS| Grid level progression factor:                                          3.0
 QS| Relative density cutoff [a.u.]:                                        50.0
 QS| Interaction thresholds: eps_pgf_orb:                                1.0E-12
 QS|                         eps_filter_matrix:                          0.0E+00
 QS|                         eps_core_charge:                            1.0E-14
 QS|                         eps_rho_gspace:                             1.0E-12
 QS|                         eps_rho_rspace:                             1.0E-12
 QS|                         eps_gvg_rspace:                             1.0E-06
 QS|                         eps_ppl:                                    1.0E-02
 QS|                         eps_ppnl:                                   1.0E-08
 QS| GAPW|      One center basis from orbital basis primitives
 QS| GAPW|                   eps_fit:                                    1.0E-04
 QS| GAPW|                   eps_iso:                                    1.0E-12
 QS| GAPW|                   eps_svd:                                    1.0E-08
 QS| GAPW|                   eps_cpc:                                    1.0E-12
 QS| GAPW|   atom-r-grid: quadrature:                                     GC_LOG
 QS| GAPW|      atom-s-grid:  max l :                                          4
 QS| GAPW|      max_l_rho0 :                                                   2


 ATOMIC KIND INFORMATION

  1. Atomic kind: na                                    Number of atoms:       8

     Orbital Basis Set                                                   cc-pVDZ

       Number of orbital shell sets:                                           3
       Number of orbital shells:                                               8
       Number of primitive Cartesian functions:                               21
       Number of Cartesian basis functions:                                   19
       Number of spherical basis functions:                                   18
       Norm type:                                                              2

       Normalised Cartesian orbitals:

                        Set   Shell   Orbital            Exponent    Coefficient

                          1       1    1px             138.100000       3.911485
                                                        32.240000       4.552739
                                                         9.985000       4.120734
                                                         3.484000       2.438470
                                                         1.231000       0.831695
                                                         0.417700       0.108897
                                                         0.065130       0.000379
                                                         0.020530      -0.000022
                          1       1    1py             138.100000       3.911485
                                                        32.240000       4.552739
                                                         9.985000       4.120734
                                                         3.484000       2.438470
                                                         1.231000       0.831695
                                                         0.417700       0.108897
                                                         0.065130       0.000379
                                                         0.020530      -0.000022
                          1       1    1pz             138.100000       3.911485
                                                        32.240000       4.552739
                                                         9.985000       4.120734
                                                         3.484000       2.438470
                                                         1.231000       0.831695
                                                         0.417700       0.108897
                                                         0.065130       0.000379
                                                         0.020530      -0.000022

                          1       2    2px             138.100000      -0.392423
                                                        32.240000      -0.446020
                                                         9.985000      -0.424885
                                                         3.484000      -0.239686
                                                         1.231000      -0.096474
                                                         0.417700      -0.008059
                                                         0.065130       0.020383
                                                         0.020530       0.007291
                          1       2    2py             138.100000      -0.392423
                                                        32.240000      -0.446020
                                                         9.985000      -0.424885
                                                         3.484000      -0.239686
                                                         1.231000      -0.096474
                                                         0.417700      -0.008059
                                                         0.065130       0.020383
                                                         0.020530       0.007291
                          1       2    2pz             138.100000      -0.392423
                                                        32.240000      -0.446020
                                                         9.985000      -0.424885
                                                         3.484000      -0.239686
                                                         1.231000      -0.096474
                                                         0.417700      -0.008059
                                                         0.065130       0.020383
                                                         0.020530       0.007291

                          1       3    3px             138.100000       0.000000
                                                        32.240000       0.000000
                                                         9.985000       0.000000
                                                         3.484000       0.000000
                                                         1.231000       0.000000
                                                         0.417700       0.000000
                                                         0.065130       0.000000
                                                         0.020530       0.011077
                          1       3    3py             138.100000       0.000000
                                                        32.240000       0.000000
                                                         9.985000       0.000000
                                                         3.484000       0.000000
                                                         1.231000       0.000000
                                                         0.417700       0.000000
                                                         0.065130       0.000000
                                                         0.020530       0.011077
                          1       3    3pz             138.100000       0.000000
                                                        32.240000       0.000000
                                                         9.985000       0.000000
                                                         3.484000       0.000000
                                                         1.231000       0.000000
                                                         0.417700       0.000000
                                                         0.065130       0.000000
                                                         0.020530       0.011077

                          2       1    1s            31700.000000       0.776966
                                                      4755.000000       1.449062
                                                      1082.000000       2.455411
                                                       306.400000       3.740536
                                                        99.530000       4.768917
                                                        35.420000       4.306771
                                                        13.300000       1.851531
                                                         4.392000       0.135153
                                                         1.676000      -0.006556
                                                         0.588900       0.001166
                                                         0.056400      -0.000036
                                                         0.023070       0.000010

                          2       2    2s            31700.000000      -0.189911
                                                      4755.000000      -0.354445
                                                      1082.000000      -0.606841
                                                       306.400000      -0.947000
                                                        99.530000      -1.304372
                                                        35.420000      -1.424401
                                                        13.300000      -0.962486
                                                         4.392000       0.185523
                                                         1.676000       0.634532
                                                         0.588900       0.211635
                                                         0.056400       0.001077
                                                         0.023070      -0.000240

                          2       3    3s            31700.000000       0.028811
                                                      4755.000000       0.053337
                                                      1082.000000       0.092477
                                                       306.400000       0.142157
                                                        99.530000       0.201120
                                                        35.420000       0.215060
                                                        13.300000       0.158528
                                                         4.392000      -0.041379
                                                         1.676000      -0.107706
                                                         0.588900      -0.095318
                                                         0.056400       0.054106
                                                         0.023070       0.018190

                          2       4    4s            31700.000000       0.000000
                                                      4755.000000       0.000000
                                                      1082.000000       0.000000
                                                       306.400000       0.000000
                                                        99.530000       0.000000
                                                        35.420000       0.000000
                                                        13.300000       0.000000
                                                         4.392000       0.000000
                                                         1.676000       0.000000
                                                         0.588900       0.000000
                                                         0.056400       0.000000
                                                         0.023070       0.042189

                          3       1    1dx2              0.092800       0.025681
                          3       1    1dxy              0.092800       0.044481
                          3       1    1dxz              0.092800       0.044481
                          3       1    1dy2              0.092800       0.025681
                          3       1    1dyz              0.092800       0.044481
                          3       1    1dz2              0.092800       0.025681

     RI Auxiliary Basis Set                                        cc-pVDZ-RIFIT

       Number of orbital shell sets:                                          24
       Number of orbital shells:                                              24
       Number of primitive Cartesian functions:                               24
       Number of Cartesian basis functions:                                   90
       Number of spherical basis functions:                                   76
       Norm type:                                                              2

       Normalised Cartesian orbitals:

                        Set   Shell   Orbital            Exponent    Coefficient

                          1       1    1s                0.050462       0.075882

                          2       1    1px               0.061683       0.043818
                          2       1    1py               0.061683       0.043818
                          2       1    1pz               0.061683       0.043818

                          3       1    1px               0.102451       0.082620
                          3       1    1py               0.102451       0.082620
                          3       1    1pz               0.102451       0.082620

                          4       1    1s                0.130603       0.154837

                          5       1    1dx2              0.155416       0.063318
                          5       1    1dxy              0.155416       0.109670
                          5       1    1dxz              0.155416       0.109670
                          5       1    1dy2              0.155416       0.063318
                          5       1    1dyz              0.155416       0.109670
                          5       1    1dz2              0.155416       0.063318

                          6       1    1fx3              0.273570       0.079682
                          6       1    1fx2y             0.273570       0.178174
                          6       1    1fx2z             0.273570       0.178174
                          6       1    1fxy2             0.273570       0.178174
                          6       1    1fxyz             0.273570       0.308606
                          6       1    1fxz2             0.273570       0.178174
                          6       1    1fy3              0.273570       0.079682
                          6       1    1fy2z             0.273570       0.178174
                          6       1    1fyz2             0.273570       0.178174
                          6       1    1fz3              0.273570       0.079682

                          7       1    1s                0.329007       0.309609

                          8       1    1px               0.410309       0.468089
                          8       1    1py               0.410309       0.468089
                          8       1    1pz               0.410309       0.468089

                          9       1    1dx2              0.528614       0.539389
                          9       1    1dxy              0.528614       0.934249
                          9       1    1dxz              0.528614       0.934249
                          9       1    1dy2              0.528614       0.539389
                          9       1    1dyz              0.528614       0.934249
                          9       1    1dz2              0.528614       0.539389

                         10       1    1s                0.640241       0.510115

                         11       1    1fx3              0.682956       0.624221
                         11       1    1fx2y             0.682956       1.395800
                         11       1    1fx2z             0.682956       1.395800
                         11       1    1fxy2             0.682956       1.395800
                         11       1    1fxyz             0.682956       2.417596
                         11       1    1fxz2             0.682956       1.395800
                         11       1    1fy3              0.682956       0.624221
                         11       1    1fy2z             0.682956       1.395800
                         11       1    1fyz2             0.682956       1.395800
                         11       1    1fz3              0.682956       0.624221

                         12       1    1px               0.908608       1.264477
                         12       1    1py               0.908608       1.264477
                         12       1    1pz               0.908608       1.264477

                         13       1    1dx2              1.089250       1.911537
                         13       1    1dxy              1.089250       3.310879
                         13       1    1dxz              1.089250       3.310879
                         13       1    1dy2              1.089250       1.911537
                         13       1    1dyz              1.089250       3.310879
                         13       1    1dz2              1.089250       1.911537

                         14       1    1px               1.727970       2.823972
                         14       1    1py               1.727970       2.823972
                         14       1    1pz               1.727970       2.823972

                         15       1    1s                1.832360       1.122453

                         16       1    1fx3              2.314970       9.731539
                         16       1    1fx2y             2.314970      21.760383
                         16       1    1fx2z             2.314970      21.760383
                         16       1    1fxy2             2.314970      21.760383
                         16       1    1fxyz             2.314970      37.690088
                         16       1    1fxz2             2.314970      21.760383
                         16       1    1fy3              2.314970       9.731539
                         16       1    1fy2z             2.314970      21.760383
                         16       1    1fyz2             2.314970      21.760383
                         16       1    1fz3              2.314970       9.731539

                         17       1    1dx2              4.705220      24.741404
                         17       1    1dxy              4.705220      42.853369
                         17       1    1dxz              4.705220      42.853369
                         17       1    1dy2              4.705220      24.741404
                         17       1    1dyz              4.705220      42.853369
                         17       1    1dz2              4.705220      24.741404

                         18       1    1px               5.340790      11.573027
                         18       1    1py               5.340790      11.573027
                         18       1    1pz               5.340790      11.573027

                         19       1    1s                5.654590       2.613430

                         20       1    1s                9.680680       3.911465

                         21       1    1dx2             16.944000     232.909582
                         21       1    1dxy             16.944000     403.411230
                         21       1    1dxz             16.944000     403.411230
                         21       1    1dy2             16.944000     232.909582
                         21       1    1dyz             16.944000     403.411230
                         21       1    1dz2             16.944000     232.909582

                         22       1    1s               35.088600      10.275066

                         23       1    1px              51.309100     195.741577
                         23       1    1py              51.309100     195.741577
                         23       1    1pz              51.309100     195.741577

                         24       1    1s              159.646000      32.009480

       Atomic covalent radius [Angstrom]:                                  1.540

       Atomic van der Waals radius [Angstrom]:                             2.270

     The atoms of this atomic kind are PAW atoms (GAPW):
       Hard Gaussian function radius:                                      1.512
       Rho0 radius:                                                        1.512
       Maximum GTO radius used for PAW projector construction:            24.566

     GAPW Soft Basis Set                                            cc-pVDZ_soft

       Number of orbital shell sets:                                           3
       Number of orbital shells:                                               8
       Number of primitive Cartesian functions:                               10
       Number of Cartesian basis functions:                                   19
       Number of spherical basis functions:                                   18
       Norm type:                                                              2

       Normalised Cartesian orbitals:

                        Set   Shell   Orbital            Exponent    Coefficient

                          1       1    1px               3.484000       2.438470
                                                         1.231000       0.831695
                                                         0.417700       0.108897
                                                         0.065130       0.000379
                                                         0.020530      -0.000022
                          1       1    1py               3.484000       2.438470
                                                         1.231000       0.831695
                                                         0.417700       0.108897
                                                         0.065130       0.000379
                                                         0.020530      -0.000022
                          1       1    1pz               3.484000       2.438470
                                                         1.231000       0.831695
                                                         0.417700       0.108897
                                                         0.065130       0.000379
                                                         0.020530      -0.000022

                          1       2    2px               3.484000      -0.239686
                                                         1.231000      -0.096474
                                                         0.417700      -0.008059
                                                         0.065130       0.020383
                                                         0.020530       0.007291
                          1       2    2py               3.484000      -0.239686
                                                         1.231000      -0.096474
                                                         0.417700      -0.008059
                                                         0.065130       0.020383
                                                         0.020530       0.007291
                          1       2    2pz               3.484000      -0.239686
                                                         1.231000      -0.096474
                                                         0.417700      -0.008059
                                                         0.065130       0.020383
                                                         0.020530       0.007291

                          1       3    3px               3.484000       0.000000
                                                         1.231000       0.000000
                                                         0.417700       0.000000
                                                         0.065130       0.000000
                                                         0.020530       0.011077
                          1       3    3py               3.484000       0.000000
                                                         1.231000       0.000000
                                                         0.417700       0.000000
                                                         0.065130       0.000000
                                                         0.020530       0.011077
                          1       3    3pz               3.484000       0.000000
                                                         1.231000       0.000000
                                                         0.417700       0.000000
                                                         0.065130       0.000000
                                                         0.020530       0.011077

                          2       1    1s                1.676000      -0.006556
                                                         0.588900       0.001166
                                                         0.056400      -0.000036
                                                         0.023070       0.000010

                          2       2    2s                1.676000       0.634532
                                                         0.588900       0.211635
                                                         0.056400       0.001077
                                                         0.023070      -0.000240

                          2       3    3s                1.676000      -0.107706
                                                         0.588900      -0.095318
                                                         0.056400       0.054106
                                                         0.023070       0.018190

                          2       4    4s                1.676000       0.000000
                                                         0.588900       0.000000
                                                         0.056400       0.000000
                                                         0.023070       0.042189

                          3       1    1dx2              0.092800       0.025681
                          3       1    1dxy              0.092800       0.044481
                          3       1    1dxz              0.092800       0.044481
                          3       1    1dy2              0.092800       0.025681
                          3       1    1dyz              0.092800       0.044481
                          3       1    1dz2              0.092800       0.025681

     AE Potential information for                                            ALL

       Description:                                       All-electron potential
                                          Krack, Parrinello, PCCP 2, 2105 (2000)

       Gaussian exponent of the core charge distribution:               8.240971
       Electronic configuration (s p d ...):                           5   6   0


 MOLECULE KIND INFORMATION


 All atoms are their own molecule, skipping detailed information


 TOTAL NUMBERS AND MAXIMUM NUMBERS

  Total number of            - Atomic kinds:                                   1
                             - Atoms:                                          8
                             - Shell sets:                                    24
                             - Shells:                                        64
                             - Primitive Cartesian functions:                168
                             - Cartesian basis functions:                    152
                             - Spherical basis functions:                    144

  Maximum angular momentum of the orbital basis functions:                     2


 MODULE QUICKSTEP: ATOMIC COORDINATES IN ANGSTROM

   Atom Kind Element         X             Y             Z       Z(eff)     Mass
      1    1 na   11     17.076310     17.076310     12.923690  11.0000  22.9898
      2    1 na   11     16.267094     13.732906     13.732906  11.0000  22.9898
      3    1 na   11     12.923690     12.923690     12.923690  11.0000  22.9898
      4    1 na   11     17.076310     12.923690     17.076310  11.0000  22.9898
      5    1 na   11     16.267094     16.267094     16.267094  11.0000  22.9898
      6    1 na   11     12.923690     17.076310     17.076310  11.0000  22.9898
      7    1 na   11     13.732906     13.732906     16.267094  11.0000  22.9898
      8    1 na   11     13.732906     16.267094     13.732906  11.0000  22.9898



 SCF PARAMETERS         Density guess:                                   RESTART
                        --------------------------------------------------------
                        max_scf:                                             500
                        max_scf_history:                                       0
                        max_diis:                                              4
                        --------------------------------------------------------
                        eps_scf:                                        1.00E-06
                        eps_scf_history:                                0.00E+00
                        eps_diis:                                       1.00E-01
                        eps_eigval:                                     1.00E-05
                        --------------------------------------------------------
                        level_shift [a.u.]:                             0.000000
                        --------------------------------------------------------
                        Outer loop SCF in use 
                        No variables optimised in outer loop
                        eps_scf                                         1.00E-06
                        max_scf                                               20
                        No outer loop optimization
                        step_size                                       5.00E-01

 PW_GRID| Information for grid number                                          1
 PW_GRID| Grid distributed over                                    96 processors
 PW_GRID| Real space group dimensions                                    96    1
 PW_GRID| the grid is blocked:                                                NO
 PW_GRID| Cutoff [a.u.]                                                    250.0
 PW_GRID| spherical cutoff:                                                   NO
 PW_GRID|   Bounds   1           -202     202                Points:         405
 PW_GRID|   Bounds   2           -202     202                Points:         405
 PW_GRID|   Bounds   3           -202     202                Points:         405
 PW_GRID| Volume element (a.u.^3)  0.2743E-02     Volume (a.u.^3)    182205.0337
 PW_GRID| Grid span                                                    FULLSPACE
 PW_GRID|   Distribution                         Average         Max         Min
 PW_GRID|   G-Vectors                           691980.5      692145      691740
 PW_GRID|   G-Rays                                1708.6        1709        1708
 PW_GRID|   Real Space Points                   691980.5      820125      656100

 PW_GRID| Information for grid number                                          2
 PW_GRID| Number of the reference grid                                         1
 PW_GRID| Grid distributed over                                    96 processors
 PW_GRID| Real space group dimensions                                    96    1
 PW_GRID| the grid is blocked:                                                NO
 PW_GRID| Cutoff [a.u.]                                                     83.3
 PW_GRID| spherical cutoff:                                                   NO
 PW_GRID|   Bounds   1           -120     119                Points:         240
 PW_GRID|   Bounds   2           -120     119                Points:         240
 PW_GRID|   Bounds   3           -120     119                Points:         240
 PW_GRID| Volume element (a.u.^3)  0.1318E-01     Volume (a.u.^3)    182205.0337
 PW_GRID| Grid span                                                    FULLSPACE
 PW_GRID|   Distribution                         Average         Max         Min
 PW_GRID|   G-Vectors                           144000.0      144480      143760
 PW_GRID|   G-Rays                                 600.0         602         599
 PW_GRID|   Real Space Points                   144000.0      172800      115200

 PW_GRID| Information for grid number                                          3
 PW_GRID| Number of the reference grid                                         1
 PW_GRID| Grid distributed over                                    96 processors
 PW_GRID| Real space group dimensions                                    96    1
 PW_GRID| the grid is blocked:                                                NO
 PW_GRID| Cutoff [a.u.]                                                     27.8
 PW_GRID| spherical cutoff:                                                   NO
 PW_GRID|   Bounds   1            -67      67                Points:         135
 PW_GRID|   Bounds   2            -67      67                Points:         135
 PW_GRID|   Bounds   3            -67      67                Points:         135
 PW_GRID| Volume element (a.u.^3)  0.7406E-01     Volume (a.u.^3)    182205.0337
 PW_GRID| Grid span                                                    FULLSPACE
 PW_GRID|   Distribution                         Average         Max         Min
 PW_GRID|   G-Vectors                            25628.9       25785       25515
 PW_GRID|   G-Rays                                 189.8         191         189
 PW_GRID|   Real Space Points                    25628.9       36450       18225

 PW_GRID| Information for grid number                                          4
 PW_GRID| Number of the reference grid                                         1
 PW_GRID| Grid distributed over                                    96 processors
 PW_GRID| Real space group dimensions                                     8   12
 PW_GRID| the grid is blocked:                                                NO
 PW_GRID| Cutoff [a.u.]                                                      9.3
 PW_GRID| spherical cutoff:                                                   NO
 PW_GRID|   Bounds   1            -40      39                Points:          80
 PW_GRID|   Bounds   2            -40      39                Points:          80
 PW_GRID|   Bounds   3            -40      39                Points:          80
 PW_GRID| Volume element (a.u.^3)  0.3559         Volume (a.u.^3)    182205.0337
 PW_GRID| Grid span                                                    FULLSPACE
 PW_GRID|   Distribution                         Average         Max         Min
 PW_GRID|   G-Vectors                             5333.3        5520        5200
 PW_GRID|   G-Rays                                  66.7          69          65
 PW_GRID|   Real Space Points                     5333.3        5600        4800

 POISSON| Solver                                                         WAVELET
 POISSON| Wavelet| Scaling function                                           40
 POISSON| Periodicity                                                       NONE

 RS_GRID| Information for grid number                                          1
 RS_GRID|   Bounds   1           -202     202                Points:         405
 RS_GRID|   Bounds   2           -202     202                Points:         405
 RS_GRID|   Bounds   3           -202     202                Points:         405
 RS_GRID| Real space distribution over                                  4 groups
 RS_GRID| Real space distribution along direction                              1
 RS_GRID| Border size                                                         33
 RS_GRID| Real space distribution over                                  4 groups
 RS_GRID| Real space distribution along direction                              2
 RS_GRID| Border size                                                         33
 RS_GRID| Real space distribution over                                  6 groups
 RS_GRID| Real space distribution along direction                              3
 RS_GRID| Border size                                                         33
 RS_GRID|   Distribution                         Average         Max         Min
 RS_GRID|   Planes                                 167.2         168         167
 RS_GRID|   Distribution                         Average         Max         Min
 RS_GRID|   Planes                                 167.2         168         167
 RS_GRID|   Distribution                         Average         Max         Min
 RS_GRID|   Planes                                 133.5         134         133

 RS_GRID| Information for grid number                                          2
 RS_GRID|   Bounds   1           -120     119                Points:         240
 RS_GRID|   Bounds   2           -120     119                Points:         240
 RS_GRID|   Bounds   3           -120     119                Points:         240
 RS_GRID| Real space distribution over                                  4 groups
 RS_GRID| Real space distribution along direction                              1
 RS_GRID| Border size                                                         33
 RS_GRID| Real space distribution over                                  4 groups
 RS_GRID| Real space distribution along direction                              2
 RS_GRID| Border size                                                         33
 RS_GRID| Real space distribution over                                  6 groups
 RS_GRID| Real space distribution along direction                              3
 RS_GRID| Border size                                                         33
 RS_GRID|   Distribution                         Average         Max         Min
 RS_GRID|   Planes                                 126.0         126         126
 RS_GRID|   Distribution                         Average         Max         Min
 RS_GRID|   Planes                                 126.0         126         126
 RS_GRID|   Distribution                         Average         Max         Min
 RS_GRID|   Planes                                 106.0         106         106

 RS_GRID| Information for grid number                                          3
 RS_GRID|   Bounds   1            -67      67                Points:         135
 RS_GRID|   Bounds   2            -67      67                Points:         135
 RS_GRID|   Bounds   3            -67      67                Points:         135
 RS_GRID| Real space fully replicated
 RS_GRID| Group size                                                           1

 RS_GRID| Information for grid number                                          4
 RS_GRID|   Bounds   1            -40      39                Points:          80
 RS_GRID|   Bounds   2            -40      39                Points:          80
 RS_GRID|   Bounds   3            -40      39                Points:          80
 RS_GRID| Real space fully replicated
 RS_GRID| Group size                                                           1

  HFX_INFO| Replica ID:                                                        1
  HFX_INFO| FRACTION:                                               0.2500000000
  HFX_INFO| Interaction Potential:                                       COULOMB
  HFX_INFO| EPS_SCHWARZ:                                                 1.0E-10
  HFX_INFO| EPS_SCHWARZ_FORCES                                           1.0E-08
  HFX_INFO| EPS_STORAGE_SCALING:                                         1.0E+00
  HFX_INFO| NBINS:                                                            64
  HFX_INFO| BLOCK_SIZE:                                                        1
  HFX_INFO| Number of periodic shells considered:                           NONE
  HFX_INFO| Number of periodic cells considered:                            NONE


 OVERLAP MATRIX CONDITION NUMBER
 1-Norm Condition Number (Estimate)
   CN : |A|*|A^-1|:  2.250E+001 *  2.400E+003   = 5.401E+004  Log(1-CN):  4.7325
 1-Norm and 2-Norm Condition Numbers using Diagonalization
   CN : |A|*|A^-1|:  2.250E+001 *  3.119E+003   = 7.017E+004  Log(1-CN):  4.8462
   CN : max/min ev:  1.246E+001 /  6.608E-004   = 1.885E+004  Log(2-CN):  4.2754

 Number of electrons:                                                         88
 Number of occupied orbitals:                                                 44
 Number of molecular orbitals:                                                44

 Number of orbital functions:                                                144
 Number of independent orbital functions:                                    144

 Extrapolation method: initial_guess

 *** WARNING in qs_initial_guess.F:306 :: User requested to restart the    ***
 *** wavefunction from the file named: MoS2-RESTART.wfn. This file does    ***
 *** not exist. Please check the existence of the file or change properly  ***
 *** the value of the keyword WFN_RESTART_FILE_NAME. Calculation continues ***
 *** using ATOMIC GUESS.                                                   ***


 Atomic guess: The first density matrix is obtained in terms of atomic orbitals
               and electronic configurations assigned to each atomic kind

 Guess for atomic kind: na

 Electronic structure
    Total number of core electrons                                          0.00
    Total number of valence electrons                                      11.00
    Total number of electrons                                              11.00
    Multiplicity                                                   not specified
    S      2.00  2.00  1.00
    P      6.00


 *******************************************************************************
                  Iteration          Convergence                     Energy [au]
 *******************************************************************************
                          1        0.406274                    -161.392072574755
                          2        0.697779E-01                -161.417308374874
                          3        0.102302E-03                -161.418316817261
                          4        0.389640E-04                -161.418316894604
                          5        0.406669E-06                -161.418316895009

 Energy components [Hartree]           Total Energy ::         -161.418316895009
                                        Band Energy ::          -85.940436787895
                                     Kinetic Energy ::          161.605176509518
                                   Potential Energy ::         -323.023493404527
                                      Virial (-V/T) ::            1.998843727543
                                        Core Energy ::         -227.680056572191
                                          XC Energy ::          -13.554370845094
                                     Coulomb Energy ::           79.816110522276

 Orbital energies  State     L     Occupation   Energy[a.u.]          Energy[eV]

                       1     0          2.000     -37.707890        -1026.083880
                       2     0          2.000      -2.053924          -55.890108
                       3     0          1.000      -0.104098           -2.832646

                       1     1          6.000      -1.052118          -28.629599


 Total Electron Density at R=0:                                       804.470832
 Re-scaling the density matrix to get the right number of electrons
                  # Electrons              Trace(P)               Scaling factor
                           88                88.000                        1.000


 SCF WAVEFUNCTION OPTIMIZATION

  ----------------------------------- OT ---------------------------------------
  Minimizer      : CG                  : conjugate gradient
  Preconditioner : FULL_SINGLE_INVERSE : inversion of 
                                         H + eS - 2*(Sc)(c^T*H*c+const)(Sc)^T
  Precond_solver : DEFAULT
  Line search    : 3PNT                : 3 energies
  stepsize       :    0.08000000                  energy_gap     :    0.08000000
  eps_taylor     :   0.10000E-15                  max_taylor     :             4
  ----------------------------------- OT ---------------------------------------

  Step     Update method      Time    Convergence         Total energy    Change
  ------------------------------------------------------------------------------

  HFX_MEM_INFO| Est. max. program size before HFX [MiB]:                     658
  HFX_MEM_INFO| Number of cart. primitive ERI's calculated:           1039760892
  HFX_MEM_INFO| Number of sph. ERI's calculated:                        69914016
  HFX_MEM_INFO| Number of sph. ERI's stored in-core:                    69914016
  HFX_MEM_INFO| Number of sph. ERI's stored on disk:                           0
  HFX_MEM_INFO| Number of sph. ERI's calculated on the fly:                    0
  HFX_MEM_INFO| Total memory consumption ERI's RAM [MiB]:                    226
  HFX_MEM_INFO| Whereof max-vals [MiB]:                                        3
  HFX_MEM_INFO| Total compression factor ERI's RAM:                         2.37
  HFX_MEM_INFO| Total memory consumption ERI's disk [MiB]:                     0
  HFX_MEM_INFO| Total compression factor ERI's disk:                        0.00
  HFX_MEM_INFO| Size of density/Fock matrix [MiB]:                             0
  HFX_MEM_INFO| Size of buffers [MiB]:                                         0
  HFX_MEM_INFO| Est. max. program size after HFX  [MiB]:                    1179

     1 OT CG       0.64E-01    3.9     0.49161865     -1256.8848788588 -1.26E+03
     2 OT LS       0.90E-01    1.1                    -1278.6495012919
     3 OT LS       0.41E-01    1.1                    -1245.3069093258
     4 OT CG       0.33E-01    1.5     0.09943954     -1289.4936402265 -3.26E+01
     5 OT LS       0.46E-01    1.1                    -1290.8788057303
     6 OT LS       0.53E-01    1.1                    -1291.0776131632
     7 OT CG       0.42E-01    1.5     0.04338217     -1291.1008987594 -1.61E+00
     8 OT LS       0.59E-01    1.1                    -1291.5118959295
     9 OT LS       0.12E+00    1.1                    -1291.6257530215
    10 OT CG       0.93E-01    1.5     0.05330166     -1291.7980322555 -6.97E-01
    11 OT LS       0.13E+00    1.1                    -1293.1698876013
    12 OT LS       0.22E+00    1.1                    -1293.5139050180
    13 OT CG       0.18E+00    1.5     0.07316098     -1293.7586405159 -1.96E+00
    14 OT LS       0.89E-01    1.1                    -1292.8150146012
    15 OT LS       0.73E-01    1.1                    -1294.5993150762
    16 OT CG       0.58E-01    1.5     0.03984486     -1294.6778494117 -9.19E-01
    17 OT LS       0.82E-01    1.1                    -1294.9763717070
    18 OT LS       0.60E-01    1.1                    -1294.9391384926
    19 OT CG       0.48E-01    1.6     0.02198577     -1294.9766745709 -2.99E-01
    20 OT LS       0.67E-01    1.1                    -1295.1163220644
    21 OT LS       0.27E+00    1.1                    -1295.1677253805
    22 OT CG       0.22E+00    1.5     0.02946801     -1295.5422542335 -5.66E-01
    23 OT LS       0.30E+00    1.1                    -1296.0576198396
    24 OT LS       0.17E+00    1.1                    -1295.7550840926
    25 OT CG       0.14E+00    1.5     0.03557781     -1296.1083432086 -5.66E-01
    26 OT LS       0.19E+00    1.1                    -1296.2347258824
    27 OT LS       0.76E-01    1.1                    -1295.6902397984
    28 OT CG       0.61E-01    1.5     0.02779486     -1296.4173989536 -3.09E-01
    29 OT LS       0.85E-01    1.1                    -1296.6139957325
    30 OT LS       0.88E-01    1.1                    -1296.6349436259
    31 OT CG       0.70E-01    1.5     0.01831850     -1296.6352601171 -2.18E-01
    32 OT LS       0.99E-01    1.1                    -1296.7295881170
    33 OT LS       0.95E-01    1.1                    -1296.7363695746
    34 OT CG       0.76E-01    1.5     0.01953010     -1296.7364836632 -1.01E-01
    35 OT LS       0.11E+00    1.1                    -1296.8954775830
    36 OT LS       0.28E+00    1.1                    -1296.9448320585
    37 OT CG       0.22E+00    1.5     0.02649122     -1297.0708732200 -3.34E-01
    38 OT LS       0.11E+00    1.1                    -1296.8366698590
    39 OT LS       0.89E-01    1.1                    -1297.2539652652
    40 OT CG       0.71E-01    1.5     0.01230706     -1297.2660005502 -1.95E-01
    41 OT LS       0.10E+00    1.1                    -1297.2958099449
    42 OT LS       0.64E-01    1.1                    -1297.2864819339
    43 OT CG       0.51E-01    1.5     0.00602367     -1297.2962538623 -3.03E-02
    44 OT LS       0.71E-01    1.1                    -1297.3060961663
    45 OT LS       0.16E+00    1.1                    -1297.3089993312
    46 OT CG       0.13E+00    1.5     0.00804368     -1297.3147263644 -1.85E-02
    47 OT LS       0.18E+00    1.1                    -1297.3520615320
    48 OT LS       0.22E+00    1.1                    -1297.3585438800
    49 OT CG       0.18E+00    1.5     0.01089788     -1297.3603249566 -4.56E-02
    50 OT LS       0.25E+00    1.1                    -1297.3611693149
    51 OT LS       0.90E-01    1.1                    -1297.2831348990
    52 OT CG       0.72E-01    1.5     0.00510564     -1297.3948930181 -3.46E-02
    53 OT LS       0.10E+00    1.1                    -1297.4017192505
    54 OT LS       0.84E-01    1.1                    -1297.4015555347
    55 OT CG       0.67E-01    1.5     0.00307491     -1297.4018521978 -6.96E-03
    56 OT LS       0.94E-01    1.1                    -1297.4051589073
    57 OT LS       0.19E+00    1.2                    -1297.4060896745
    58 OT CG       0.15E+00    1.5     0.00466838     -1297.4075901597 -5.74E-03
    59 OT LS       0.21E+00    1.1                    -1297.4207897938
    60 OT LS       0.20E+00    1.1                    -1297.4215495101
    61 OT CG       0.16E+00    1.5     0.00596427     -1297.4216064509 -1.40E-02
    62 OT LS       0.23E+00    1.1                    -1297.4229606414
    63 OT LS       0.84E-01    1.1                    -1297.4041825215
    64 OT CG       0.67E-01    1.5     0.00268408     -1297.4310008776 -9.39E-03
    65 OT LS       0.94E-01    1.1                    -1297.4329100542
    66 OT LS       0.89E-01    1.1                    -1297.4330320722
    67 OT CG       0.72E-01    1.5     0.00191977     -1297.4330371882 -2.04E-03
    68 OT LS       0.10E+00    1.1                    -1297.4344071298
    69 OT LS       0.20E+00    1.1                    -1297.4347860153
    70 OT CG       0.16E+00    1.5     0.00323425     -1297.4353504908 -2.31E-03
    71 OT LS       0.22E+00    1.1                    -1297.4427975188
    72 OT LS       0.27E+00    1.1                    -1297.4440834035
    73 OT CG       0.22E+00    1.5     0.00433826     -1297.4444238383 -9.07E-03
    74 OT LS       0.11E+00    1.1                    -1297.4335831642
    75 OT LS       0.78E-01    1.2                    -1297.4483537767
    76 OT CG       0.62E-01    1.5     0.00203380     -1297.4491211453 -4.70E-03
    77 OT LS       0.87E-01    1.1                    -1297.4500935456
    78 OT LS       0.77E-01    1.1                    -1297.4501081569
    79 OT CG       0.61E-01    1.5     0.00131204     -1297.4501280679 -1.01E-03
    80 OT LS       0.86E-01    1.1                    -1297.4507113341
    81 OT LS       0.24E+00    1.1                    -1297.4508971077
    82 OT CG       0.19E+00    1.5     0.00214470     -1297.4514435233 -1.32E-03
    83 OT LS       0.27E+00    1.1                    -1297.4547821789
    84 OT LS       0.24E+00    1.1                    -1297.4548232616
    85 OT CG       0.19E+00    1.5     0.00304767     -1297.4548971333 -3.45E-03
    86 OT LS       0.94E-01    1.1                    -1297.4530433716
    87 OT LS       0.81E-01    1.1                    -1297.4571811750
    88 OT CG       0.65E-01    1.5     0.00154215     -1297.4572518956 -2.35E-03
    89 OT LS       0.90E-01    1.1                    -1297.4579449586
    90 OT LS       0.11E+00    1.1                    -1297.4580680304
    91 OT CG       0.91E-01    1.5     0.00124757     -1297.4581034335 -8.52E-04
    92 OT LS       0.13E+00    1.1                    -1297.4588529519
    93 OT LS       0.28E+00    1.1                    -1297.4590709329
    94 OT CG       0.22E+00    1.5     0.00246797     -1297.4594749684 -1.37E-03
    95 OT LS       0.31E+00    1.1                    -1297.4624639879
    96 OT LS       0.17E+00    1.1                    -1297.4606208231
    97 OT CG       0.14E+00    1.5     0.00230770     -1297.4627504004 -3.28E-03
    98 OT LS       0.19E+00    1.1                    -1297.4630800143
    99 OT LS       0.74E-01    1.1                    -1297.4607810011
   100 OT CG       0.59E-01    1.5     0.00102130     -1297.4640001341 -1.25E-03
   101 OT LS       0.83E-01    1.1                    -1297.4643047675
   102 OT LS       0.13E+00    1.1                    -1297.4643767642
   103 OT CG       0.11E+00    1.5     0.00121703     -1297.4644353206 -4.35E-04
   104 OT LS       0.15E+00    1.1                    -1297.4652429547
   105 OT LS       0.29E+00    1.1                    -1297.4654656176
   106 OT CG       0.23E+00    1.5     0.00213624     -1297.4657939576 -1.36E-03
   107 OT LS       0.32E+00    1.1                    -1297.4676084448
   108 OT LS       0.16E+00    1.1                    -1297.4655591664
   109 OT CG       0.13E+00    1.5     0.00167821     -1297.4680981469 -2.30E-03
   110 OT LS       0.18E+00    1.1                    -1297.4682745108
   111 OT LS       0.69E-01    1.1                    -1297.4671823017
   112 OT CG       0.55E-01    1.5     0.00084176     -1297.4687111954 -6.13E-04
   113 OT LS       0.77E-01    1.1                    -1297.4689012180
   114 OT LS       0.12E+00    1.1                    -1297.4689457708
   115 OT CG       0.96E-01    1.5     0.00090576     -1297.4689809485 -2.70E-04
   116 OT LS       0.13E+00    1.1                    -1297.4694120740
   117 OT LS       0.35E+00    1.1                    -1297.4695457046
   118 OT CG       0.28E+00    1.5     0.00170969     -1297.4698834205 -9.02E-04
   119 OT LS       0.39E+00    1.1                    -1297.4709839204
   120 OT LS       0.18E+00    1.1                    -1297.4692057525
   121 OT CG       0.14E+00    1.6     0.00150887     -1297.4715099004 -1.63E-03
   122 OT LS       0.71E-01    1.1                    -1297.4714337253
   123 OT LS       0.68E-01    1.1                    -1297.4720021626
   124 OT CG       0.55E-01    1.5     0.00085909     -1297.4720027995 -4.93E-04
   125 OT LS       0.77E-01    1.1                    -1297.4722127160
   126 OT LS       0.15E+00    1.1                    -1297.4722705648
   127 OT CG       0.12E+00    1.5     0.00106588     -1297.4723556592 -3.53E-04
   128 OT LS       0.17E+00    1.1                    -1297.4730791516
   129 OT LS       0.36E+00    1.1                    -1297.4732876451
   130 OT CG       0.29E+00    1.5     0.00189908     -1297.4736605875 -1.30E-03
   131 OT LS       0.14E+00    1.1                    -1297.4722188073
   132 OT LS       0.12E+00    1.1                    -1297.4749889244
   133 OT CG       0.96E-01    1.5     0.00119504     -1297.4750470666 -1.39E-03
   134 OT LS       0.13E+00    1.1                    -1297.4753136746
   135 OT LS       0.69E-01    1.1                    -1297.4750825022
   136 OT CG       0.55E-01    1.5     0.00069103     -1297.4753607686 -3.14E-04
   137 OT LS       0.77E-01    1.1                    -1297.4755087781
   138 OT LS       0.25E+00    1.1                    -1297.4755575749
   139 OT CG       0.20E+00    1.5     0.00123048     -1297.4757341211 -3.73E-04
   140 OT LS       0.28E+00    1.1                    -1297.4768249987
   141 OT LS       0.23E+00    1.1                    -1297.4768117766
   142 OT CG       0.19E+00    1.5     0.00168702     -1297.4768508065 -1.12E-03
   143 OT LS       0.26E+00    1.1                    -1297.4772163213
   144 OT LS       0.10E+00    1.1                    -1297.4756787311
   145 OT CG       0.84E-01    1.5     0.00077900     -1297.4777943886 -9.44E-04
   146 OT LS       0.12E+00    1.1                    -1297.4779938927
   147 OT LS       0.11E+00    1.1                    -1297.4780051767
   148 OT CG       0.88E-01    1.5     0.00075025     -1297.4780060566 -2.12E-04
   149 OT LS       0.12E+00    1.1                    -1297.4782609273
   150 OT LS       0.23E+00    1.1                    -1297.4783299552
   151 OT CG       0.19E+00    1.5     0.00136179     -1297.4784249684 -4.19E-04
   152 OT LS       0.26E+00    1.1                    -1297.4797060580
   153 OT LS       0.22E+00    1.1                    -1297.4796986266
   154 OT CG       0.18E+00    1.5     0.00154257     -1297.4797395144 -1.31E-03
   155 OT LS       0.25E+00    1.1                    -1297.4800482622
   156 OT LS       0.10E+00    1.1                    -1297.4788025629
   157 OT CG       0.81E-01    1.6     0.00073899     -1297.4805059533 -7.66E-04
   158 OT LS       0.11E+00    1.1                    -1297.4807013257
   159 OT LS       0.13E+00    1.1                    -1297.4807320713
   160 OT CG       0.11E+00    1.5     0.00091025     -1297.4807375398 -2.32E-04
   161 OT LS       0.15E+00    1.1                    -1297.4811784969
   162 OT LS       0.25E+00    1.1                    -1297.4812883376
   163 OT CG       0.20E+00    1.5     0.00159066     -1297.4813962425 -6.59E-04
   164 OT LS       0.28E+00    1.1                    -1297.4833324916
   165 OT LS       0.25E+00    1.1                    -1297.4833759629
   166 OT CG       0.20E+00    1.5     0.00179316     -1297.4834102119 -2.01E-03
   167 OT LS       0.10E+00    1.1                    -1297.4818625159
   168 OT LS       0.72E-01    1.1                    -1297.4840434139
   169 OT CG       0.58E-01    1.6     0.00088722     -1297.4841484121 -7.38E-04
   170 OT LS       0.81E-01    1.1                    -1297.4843828675
   171 OT LS       0.15E+00    1.1                    -1297.4844461043
   172 OT CG       0.12E+00    1.5     0.00118997     -1297.4845313831 -3.83E-04
   173 OT LS       0.17E+00    1.1                    -1297.4854722279
   174 OT LS       0.42E+00    1.1                    -1297.4857594389
   175 OT CG       0.34E+00    1.5     0.00205939     -1297.4864385263 -1.91E-03
   176 OT LS       0.17E+00    1.1                    -1297.4796289319
   177 OT LS       0.10E+00    1.1                    -1297.4873122887
   178 OT CG       0.82E-01    1.5     0.00131821     -1297.4878867950 -1.45E-03
   179 OT LS       0.11E+00    1.1                    -1297.4883430758
   180 OT LS       0.81E-01    1.1                    -1297.4882645255
   181 OT CG       0.65E-01    1.5     0.00090796     -1297.4883431279 -4.56E-04
   182 OT LS       0.90E-01    1.1                    -1297.4885716003
   183 OT LS       0.10E+00    1.1                    -1297.4886019099
   184 OT CG       0.80E-01    1.5     0.00103202     -1297.4886042738 -2.61E-04
   185 OT LS       0.11E+00    1.1                    -1297.4890818254
   186 OT LS       0.35E+00    1.1                    -1297.4892380988
   187 OT CG       0.28E+00    1.5     0.00152336     -1297.4897794802 -1.18E-03
   188 OT LS       0.14E+00    1.1                    -1297.4886074410
   189 OT LS       0.11E+00    1.1                    -1297.4905166445
   190 OT CG       0.87E-01    1.5     0.00094799     -1297.4905806636 -8.01E-04
   191 OT LS       0.12E+00    1.1                    -1297.4908832631
   192 OT LS       0.11E+00    1.1                    -1297.4908969430
   193 OT CG       0.89E-01    1.5     0.00079641     -1297.4908992998 -3.19E-04
   194 OT LS       0.13E+00    1.1                    -1297.4912151356
   195 OT LS       0.37E+00    1.1                    -1297.4913172182
   196 OT CG       0.30E+00    1.5     0.00181386     -1297.4916430319 -7.44E-04
   197 OT LS       0.42E+00    1.1                    -1297.4930596605
   198 OT LS       0.19E+00    1.1                    -1297.4909662652
   199 OT CG       0.15E+00    1.5     0.00130642     -1297.4936439282 -2.00E-03
   200 OT LS       0.22E+00    1.1                    -1297.4941074122
   201 OT LS       0.11E+00    1.1                    -1297.4936219274
   202 OT CG       0.85E-01    1.5     0.00080607     -1297.4942203581 -5.76E-04
   203 OT LS       0.12E+00    1.1                    -1297.4944886145
   204 OT LS       0.18E+00    1.1                    -1297.4945494027
   205 OT CG       0.14E+00    1.5     0.00120643     -1297.4945918320 -3.71E-04
   206 OT LS       0.20E+00    1.1                    -1297.4958138412
   207 OT LS       0.81E+00    1.1                    -1297.4962404846
   208 OT CG       0.65E+00    1.5     0.00258310     -1297.4984919962 -3.90E-03
   209 OT LS       0.32E+00    1.1                    -1297.4186027013
   210 OT LS       0.85E-01    1.1                    -1297.4856040914
   211 OT CG       0.68E-01    1.5     0.00143892     -1297.5002862349 -1.79E-03
   212 OT LS       0.95E-01    1.1                    -1297.5009131887
   213 OT LS       0.12E+00    1.1                    -1297.5010274232
   214 OT CG       0.97E-01    1.5     0.00107485     -1297.5010636729 -7.77E-04
   215 OT LS       0.14E+00    1.1                    -1297.5017255796
   216 OT LS       0.54E+00    1.1                    -1297.5019639751
   217 OT CG       0.43E+00    1.5     0.00231450     -1297.5035389618 -2.48E-03
   218 OT LS       0.22E+00    1.1                    -1297.4984566619
   219 OT LS       0.17E+00    1.1                    -1297.5066621112
   220 OT CG       0.13E+00    1.5     0.00237717     -1297.5069614120 -3.42E-03
   221 OT LS       0.67E-01    1.1                    -1297.5057678307
   222 OT LS       0.54E-01    1.1                    -1297.5078680725
   223 OT CG       0.43E-01    1.5     0.00099934     -1297.5079272628 -9.66E-04
   224 OT LS       0.60E-01    1.1                    -1297.5081671025
   225 OT LS       0.18E+00    1.1                    -1297.5082444136
   226 OT CG       0.14E+00    1.5     0.00131059     -1297.5084878315 -5.61E-04
   227 OT LS       0.20E+00    1.1                    -1297.5097043569
   228 OT LS       0.34E+00    1.1                    -1297.5100085970
   229 OT CG       0.27E+00    1.5     0.00256537     -1297.5103139531 -1.83E-03
   230 OT LS       0.38E+00    1.1                    -1297.5111654102
   231 OT LS       0.15E+00    1.1                    -1297.5056754450
   232 OT CG       0.12E+00    1.5     0.00163712     -1297.5133495750 -3.04E-03
   233 OT LS       0.16E+00    1.2                    -1297.5136233120
   234 OT LS       0.67E-01    1.1                    -1297.5127799779
   235 OT CG       0.54E-01    1.5     0.00090291     -1297.5139228532 -5.73E-04
   236 OT LS       0.76E-01    1.1                    -1297.5141705174
   237 OT LS       0.24E+00    1.1                    -1297.5142522317
   238 OT CG       0.19E+00    1.5     0.00139524     -1297.5145501543 -6.27E-04
   239 OT LS       0.27E+00    1.1                    -1297.5164004921
   240 OT LS       0.42E+00    1.1                    -1297.5168326184
   241 OT CG       0.34E+00    1.5     0.00259281     -1297.5171674682 -2.62E-03
   242 OT LS       0.17E+00    1.1                    -1297.5091127361
   243 OT LS       0.11E+00    1.1                    -1297.5188891689
   244 OT CG       0.88E-01    1.5     0.00117511     -1297.5195512448 -2.38E-03
   245 OT LS       0.12E+00    1.1                    -1297.5200205876
   246 OT LS       0.11E+00    1.1                    -1297.5200357468
   247 OT CG       0.89E-01    1.5     0.00124065     -1297.5200416539 -4.90E-04
   248 OT LS       0.12E+00    1.1                    -1297.5203882428
   249 OT LS       0.74E-01    1.1                    -1297.5202357441
   250 OT CG       0.59E-01    1.5     0.00099808     -1297.5204026908 -3.61E-04
   251 OT LS       0.83E-01    1.1                    -1297.5207472290
   252 OT LS       0.33E+00    1.1                    -1297.5208686260
   253 OT CG       0.27E+00    1.5     0.00148323     -1297.5215786294 -1.18E-03
   254 OT LS       0.13E+00    1.1                    -1297.5209187464
   255 OT LS       0.11E+00    1.1                    -1297.5224485296
   256 OT CG       0.92E-01    1.6     0.00094367     -1297.5224710343 -8.92E-04
   257 OT LS       0.13E+00    1.1                    -1297.5227942208
   258 OT LS       0.12E+00    1.1                    -1297.5228150139
   259 OT CG       0.98E-01    1.5     0.00094364     -1297.5228158485 -3.45E-04
   260 OT LS       0.14E+00    1.1                    -1297.5231790862
   261 OT LS       0.14E+00    1.1                    -1297.5232188412
   262 OT CG       0.11E+00    1.5     0.00115731     -1297.5232195965 -4.04E-04
   263 OT LS       0.16E+00    1.1                    -1297.5240394259
   264 OT LS       0.37E+00    1.1                    -1297.5242832045
   265 OT CG       0.30E+00    1.5     0.00205563     -1297.5247914149 -1.57E-03
   266 OT LS       0.15E+00    1.1                    -1297.5232160040
[...]
 qs_ks_build_kohn_sham_matrix       861  7.0    0.117    0.128  842.127  842.196
 fft_wrap_pw1pw2                  16078 10.2    0.317    0.435  483.301  500.659
 pw_poisson_solve                  1061  8.4   13.689   16.386  496.644  497.373
 fft_wrap_pw1pw2_250              11425 11.5   19.688   22.754  465.488  484.048
 fft3d_ps                         16078 12.2  175.145  219.829  398.593  419.752
 ps_wavelet_solve                  1061  9.4  235.778  267.423  303.944  308.094
 qs_energies_properties               1  3.0    0.000    0.000  301.671  301.671
 tddfpt                               1  4.0    0.000    0.000  301.671  301.671
 tddfpt_energies                      1  5.0    0.000    0.001  301.626  301.626
 tddfpt_davidson_solver               1  6.0    0.002    0.003  300.212  300.212
 tddfpt_compute_Aop_evects           10  7.0    0.000    0.000  298.043  298.043
 fhxc_kernel                         10  8.0    0.010    0.011  275.979  275.979
 qs_rho_update_rho_low             1063  5.8    0.011    0.013  251.816  251.827
 calculate_rho_elec                1063  6.8    5.170    6.133  249.645  249.652
 mp_alltoall_d54                   1061 10.4   40.111  234.179   40.111  234.179
 qs_vxc_create                      861  8.0    0.010    0.010  223.855  223.857
 xc_pw_derive                      4650 11.0    0.054    0.066  211.865  219.874
 mp_alltoall_z22v                 16078 14.2  188.309  208.755  188.309  208.755
 density_rs2pw                     1063  7.8    0.065    0.076  168.191  175.056
 xc_rho_set_and_dset_create         862 10.0    1.917    2.329  142.166  166.977
 yz_to_x                           7265 12.9   11.621   13.786  109.365  124.735
 x_to_yz                           7262 13.7   21.785   25.467  112.234  116.271
 tddfpt_apply_coulomb               200  9.0    0.004    0.005  115.477  116.068
 xc_exc_calc                        573  9.0    2.785    3.302  113.716  113.718
 xc_vxc_pw_create                   288  9.0    1.770    2.183  110.130  110.131
 xc_pw_divergence                   488 10.4    0.021    0.025   94.637  102.897
 transfer_rs2pw                    5315  9.0    0.135    0.209   95.948  100.730
 prepare_gapw_den                  1062  8.2    0.013    0.016   89.256   90.443
 put_rho0_on_grid                  1062  9.2    5.304    6.578   84.614   85.802
 mp_alltoall_d11v                 25348 11.8   56.455   84.186   56.455   84.186
 grid_collocate_task_list          1063  7.8   72.205   75.953   72.205   75.953
 transfer_pw2rs                    3014 10.4    0.047    0.055   72.048   73.352
 mp_waitany                      156810 11.6   58.783   67.510   58.783   67.510
 tddfpt_apply_xc_analytic           200  9.0    0.283    0.371   66.595   67.495
 integrate_v_rspace                 488  9.0    0.011    0.015   66.284   66.586
 potential_pw2rs                    488 10.0    0.168    0.187   62.722   63.100
 integrate_four_center             1261  9.3   23.813   54.035   61.033   61.835
 transfer_rs2pw_250                2126 10.5   23.796   25.953   55.137   60.452
 mp_sum_d                         20459 10.2   34.957   55.135   34.957   55.135
 mp_sync                           6864 11.2   31.051   53.436   31.051   53.436
 transfer_pw2rs_250                1550 10.9   17.740   18.855   49.662   51.102
 integrate_vhg0_rspace             1061  8.4    0.594    0.879   49.920   50.161
 xc_functional_eval                2984 10.9    0.008    0.024   25.441   48.094
 pbe_lda_eval                      2984 11.9   25.433   48.088   25.433   48.088
 mp_alltoall_d45                   1062 10.4   25.557   44.052   25.557   44.052
 hfx_ks_matrix                      861  8.0    0.030    0.035   42.371   43.178
 xc_calc_2nd_deriv_analytical       600 10.1    2.387    2.502   39.559   39.698
 sum_up_and_integrate               288  8.0    0.003    0.005   39.436   39.552
 pw_scatter_p                      7750 12.7   28.453   29.226   28.453   29.226
 cp2k_distribution_to_z_slices     1061  9.4   10.141   10.984   24.489   26.178
 pw_derive                         7833 11.3   23.015   24.695   23.015   24.695
 pw_gather_p                       8328 11.8   22.145   24.570   22.145   24.570
 transfer_rs2pw_30                 1063  9.8    9.970   10.305   23.173   23.427
 qs_scf_new_mos                     861  5.0    0.004    0.005   21.599   21.629
 qs_scf_loop_do_ot                  861  6.0    0.005    0.005   21.595   21.625
 tddfpt_apply_hfx                    10  8.0    0.004    0.005   21.254   21.254
 ot_scf_mini                        861  7.0    0.011    0.012   20.155   20.183
 dbcsr_multiply_generic           11991  9.8    0.491    0.524   19.109   19.222
 tddft_hfx_matrix                   400  9.0    0.010    0.012   18.729   18.836
 pw_copy                          12655 10.6   16.531   17.653   16.531   17.653
 fft_wrap_pw1pw2_90                1551 10.5    0.543    0.888   13.630   17.188
 pw_poisson_set                    1062  9.4    0.036    0.042   16.371   16.551
 mp_sendrecv_dv                  201970 10.8   16.132   16.518   16.132   16.518
 mp_waitall_1                   1504544 13.4   10.800   15.405   10.800   15.405
 rs_grid_zero                      4162 10.9   14.164   14.701   14.164   14.701
 transfer_pw2rs_30                  488 12.0    8.284    9.331   13.689   14.182
 transfer_rs2pw_90                 1063  9.8    3.272    3.692   12.745   13.605
 pw_integral_ab_c1d_c1d_gs         1061  9.4    7.746    7.847    9.342   10.576
 mp_sum_dm                        25545  8.3    9.387   10.290    9.387   10.290
 multiply_cannon                  11991 10.8    1.075    1.102    9.653    9.868
 pw_copy_to_array                  8328 11.8    7.878    9.080    7.878    9.080
 qs_ot_get_p                        863  8.0    0.005    0.005    8.997    9.057
 gaVxcgb_GC                         488  9.4    0.643    7.952    0.643    7.952
 pw_axpy                           7953  9.4    7.302    7.821    7.302    7.821
 mp_isend_dv                     663775 13.4    4.814    7.627    4.814    7.627
 multiply_cannon_loop             11991 11.8    1.796    1.855    7.029    7.251
 ot_mini                            861  8.0    0.004    0.004    7.027    7.070
 pw_copy_from_array                7750 12.7    5.561    7.028    5.561    7.028
 transfer_pw2rs_90                  488 12.0    1.552    1.844    6.263    6.884
 calculate_vxc_atom                 861  8.0    0.195    1.278    6.530    6.533
 qs_ot_get_derivative               288  9.0    0.002    0.002    6.462    6.468
 make_m2s                         23982 10.8    0.425    0.488    5.711    6.010
 qs_ot_p2m_diag                     500  9.0    0.011    0.057    5.750    5.802
 pw_zero                           7199 10.4    5.215    5.590    5.215    5.590
 mp_irecv_dm3                     31362 11.6    3.020    5.399    3.020    5.399
 mp_isendrecv_dv                 332310 11.8    3.274    5.237    3.274    5.237
 init_scf_loop                        2  4.0    0.000    0.000    5.135    5.135
 cp_dbcsr_sm_fm_multiply           1250  8.6    0.023    0.026    4.992    5.123
 transfer_rs2pw_10                 1063  9.8    1.829    1.918    4.758    4.854
 mp_isend_dm3                     31362 11.6    2.579    4.675    2.579    4.675
 make_images                      23982 11.8    0.932    0.954    4.073    4.184
 calculate_xc_2nd_deriv_atom        200  9.0    0.068    0.605    0.376    4.165
 cp_dbcsr_syevd                     500 10.0    0.027    0.029    4.109    4.114
 mp_max_i                          1529  7.7    2.920    4.028    2.920    4.028
 calculate_rho_atom                1062  9.2    2.095    3.691    2.095    3.691
 dbcsr_complete_redistribute       4992 10.8    0.181    0.235    3.563    3.680
 rs_gather_matrices                 488 10.0    0.007    0.024    1.974    3.633
 cp_fm_syevd                        552 10.7    0.003    0.004    3.605    3.617
 grid_integrate_task_list           488 10.0    1.575    3.294    1.575    3.294
 integrate_four_center_main        1261 10.3    0.185    0.580    2.406    3.228
 cp_fm_redistribute_end             552 11.7    1.707    3.152    1.719    3.167
 fft_wrap_pw1pw2_30                1551 10.5    0.098    0.117    2.798    3.127
 Vh_1c_gg_integrals                1061  8.4    0.115    0.814    2.518    3.036
 integrate_four_center_bin       102375 11.3    2.220    2.965    2.220    2.965
 scale_and_distribute              2122 10.4    2.632    2.941    2.632    2.941
 cp_fm_syevd_base                   552 11.7    1.440    2.885    1.440    2.885
 qs_ot_get_orbitals                 861  8.0    0.003    0.004    2.799    2.835
 qs_ot_get_derivative_diag          166 10.0    0.004    0.004    2.778    2.781
 copy_dbcsr_to_fm                  1826  9.8    0.023    0.025    2.692    2.730
 transfer_pw2rs_10                  488 12.0    0.890    0.972    2.387    2.603
 mp_sum_dv                        45382 10.9    2.168    2.400    2.168    2.400
 qs_ot_get_derivative_taylor        122 10.0    0.004    0.005    2.289    2.291
 copy_fm_to_dbcsr                  3164  9.9    0.014    0.015    2.117    2.234
 calculate_rho_atom_coeff          1063  6.8    0.180    0.397    2.160    2.172
 integrate_four_center_getP        1261 10.3    0.210    0.224    1.885    1.967
 mp_sum_l                         55571 10.8    1.712    1.889    1.712    1.889
 cp_dbcsr_sm_fm_multiply_core      1250  9.6    0.003    0.003    1.772    1.813
 make_images_sizes                23982 12.8    0.025    0.027    1.652    1.800
 mp_alltoall_i44                  23982 13.8    1.627    1.776    1.627    1.776
 integrate_four_center_dist_KS     1261 10.3    0.209    0.222    1.734    1.744
 multiply_cannon_metrocomm4      263802 12.8    0.783    0.823    1.532    1.669
 mp_alltoall_i11v                 18021 11.9    1.525    1.527    1.525    1.527
 calculate_dm_sparse                862  7.0    0.003    0.003    1.438    1.457
 multiply_cannon_metrocomm2      251811 12.8    0.746    0.777    1.373    1.456
 dbcsr_make_images_dense          19160 11.9    0.308    0.354    0.897    1.372
 multiply_cannon_metrocomm3      287784 12.8    0.455    0.469    1.140    1.339
 tddfpt_orthonormalize_psi1_psi      11  6.9    0.029    0.030    1.258    1.258
 fft_wrap_pw1pw2_10                1551 10.5    0.025    0.027    1.068    1.124
 qs_ot_p2m_taylor                   363  9.0    0.005    0.005    1.041    1.087
 dbcsr_desymmetrize_deep           1827 10.8    0.034    0.040    1.037    1.077
 mp_rank_compare                  16078 13.2    0.961    1.027    0.961    1.027
 dbcsr_make_dense_low             56214 12.8    0.281    0.295    0.453    1.004
 mp_allgather_i34                 11991 11.8    0.824    0.952    0.824    0.952
 dbcsr_create_new                242603 12.4    0.650    0.691    0.889    0.942
 cp_dbcsr_plus_fm_fm_t              201  9.0    0.003    0.003    0.924    0.930
 multiply_cannon_metrocomm1      287784 12.8    0.317    0.327    0.761    0.922
 calculate_rho0_atom               1062  9.2    0.891    0.912    0.891    0.912
 hybrid_alltoall_any              25809 13.7    0.204    0.250    0.696    0.837
 prepare_dr1dr                      600 11.1    0.710    0.835    0.710    0.835
 pw_poisson_rebuild                1061  9.4    0.001    0.001    0.812    0.826
 ps_wavelet_create                    1 10.0    0.000    0.000    0.811    0.825
 RS_z_slice_distribution              1 11.0    0.679    0.766    0.811    0.825
 dbcsr_finalize                   26140 11.2    0.115    0.193    0.530    0.824
 tddfpt_apply_energy_diff            10  8.0    0.001    0.001    0.810    0.810
 update_ks_atom                    1061  8.2    0.111    0.235    0.658    0.797
 arnoldi_extremal                   863  9.0    0.014    0.016    0.775    0.795
 arnoldi_normal_ev                  865 10.0    0.014    0.016    0.772    0.792
 parallel_gemm_fm                  1681  8.4    0.002    0.002    0.749    0.782
 make_images_data                 23982 12.8    0.233    0.309    0.533    0.782
 parallel_gemm_fm_gemm             1681  9.4    0.002    0.002    0.747    0.780
 cp_fm_gemm                        1681 10.4    0.745    0.778    0.745    0.778
 mp_alltoall_i22                   7225 11.9    0.606    0.777    0.606    0.777
 tddfpt_compute_residual_vects        9  7.0    0.001    0.001    0.746    0.746
 tddfpt_print_nto_analysis            1  6.0    0.002    0.003    0.724    0.724
 multiply_cannon_multrec         287784 12.8    0.378    0.641    0.427    0.693
 pw_scale                          1552  9.5    0.557    0.680    0.557    0.680
 mp_alltoall_z11v                  1551 13.5    0.601    0.665    0.601    0.665
 create_qs_kind_set                   1  2.0    0.000    0.000    0.622    0.623
 read_qs_kind                         1  3.0    0.321    0.362    0.622    0.623
 mp_bcast_dm                      17844  9.3    0.567    0.598    0.567    0.598
 mp_irecv_dv                     655478 13.4    0.465    0.578    0.465    0.578
 dbcsr_special_finalize           59955 12.8    0.138    0.143    0.460    0.564
 make_dense_data                  56214 13.8    0.034    0.237    0.052    0.558
 ot_new_cg_direction                288  9.0    0.002    0.003    0.525    0.526
 vxc_of_r_new                      1722  9.0    0.003    0.039    0.041    0.503
 build_subspace                     867 11.0    0.025    0.026    0.483    0.495
 dbcsr_iterator_start            185490 12.5    0.174    0.396    0.217    0.479
 apply_preconditioner_dbcsr         290 10.0    0.000    0.001    0.458    0.477
 apply_single                       290 11.0    0.001    0.001    0.457    0.476
 mp_isend_iv                     564829 13.8    0.430    0.471    0.430    0.471
 dbcsr_merge_all                  23866 12.1    0.235    0.347    0.293    0.456
 cp_fm_redistribute_start           552 11.7    0.353    0.366    0.443    0.451
 xz_to_yz                          1063 11.8    0.038    0.043    0.407    0.433
 dbcsr_matrix_vector_mult          5202 12.0    0.048    0.051    0.283    0.425
 dbcsr_destroy                   235663 11.5    0.285    0.306    0.385    0.418
 dbcsr_add_d                       6550  9.8    0.009    0.011    0.062    0.416
 cp_fm_trace_a1b1t1_aa            20310  8.0    0.096    0.102    0.408    0.413
 dbcsr_add_anytype                 6550 10.8    0.013    0.058    0.053    0.407
 dbcsr_data_new                  649144 13.1    0.266    0.392    0.266    0.392
 cp_fm_geeig                         20  7.0    0.001    0.001    0.374    0.375
 rs_grid_create                    1067  9.4    0.005    0.008    0.102    0.365
 offload_create_buffer             1069 10.4    0.097    0.358    0.097    0.358
 dbcsr_new_transposed              4895 10.7    0.029    0.036    0.341    0.352
 powell_optimize                 130063 11.0    0.319    0.345    0.319    0.345
 dbcsr_data_release             1105100 13.3    0.281    0.341    0.281    0.341
 dbcsr_make_dense                  8314 11.1    0.034    0.035    0.186    0.330
 tddfpt_construct_ground_state_       1  6.0    0.000    0.000    0.322    0.322
 init_scf_run                         1  3.0    0.000    0.000    0.321    0.321
 scf_env_initial_rho_setup            1  4.0    0.000    0.000    0.321    0.321
 mp_cart_sub                       3655 11.8    0.303    0.306    0.303    0.306
 parser_read_line                 67837  4.0    0.024    0.026    0.301    0.306
 yz_to_xz                           488 14.0    0.027    0.029    0.258    0.305
 rs_scatter_matrices               1063  7.8    0.010    0.018    0.295    0.302
 dbcsr_iterator_stop             185490 12.5    0.129    0.258    0.159    0.302
 calc_screening_functions             1 10.0    0.101    0.116    0.264    0.297
 setup_buffer_matrices            23982 11.8    0.088    0.093    0.273    0.288
 parser_read_line_low                74  5.0    0.024    0.109    0.277    0.282
 mp_irecv_iv                     570941 13.8    0.248    0.271    0.248    0.271
 mp_cart_create                    2892 10.9    0.255    0.267    0.259    0.271
 dbcsr_redistribute                 406 12.0    0.011    0.013    0.257    0.265
 dbcsr_work_create                86054 12.5    0.141    0.164    0.202    0.261
 broadcast_input_information         74  6.0    0.056    0.061    0.253    0.260
 mp_sum_b                         19166 10.9    0.254    0.259    0.254    0.259
 dbcsr_make_undense                8314 11.1    0.056    0.119    0.110    0.256
 create_kernel_env                    1  6.0    0.000    0.000    0.218    0.255
 xc_prep_2nd_deriv                    1  7.0    0.000    0.000    0.218    0.255
 qs_init_subsys                       1  2.0    0.004    0.008    0.248    0.249
 qs_env_setup                         1  3.0    0.000    0.000    0.240    0.241
 qs_env_rebuild_pw_env                2  3.5    0.000    0.000    0.239    0.240
 pw_env_rebuild                       1  5.0    0.001    0.001    0.239    0.240
 calc_pair_dist_radii                 1 10.0    0.074    0.076    0.231    0.237
 pw_grid_setup                        4  6.0    0.000    0.000    0.225    0.226
 pw_grid_setup_internal               4  7.0    0.006    0.008    0.225    0.226
 qs_energies_init_hamiltonians        1  3.0    0.000    0.000    0.218    0.218
 dbcsr_work_destroy_all           86054 13.4    0.132    0.155    0.175    0.214
 build_core_hamiltonian_matrix        1  4.0    0.000    0.000    0.211    0.212
 xc_pw_smooth                       288 10.0    0.001    0.001    0.151    0.210
 overlap_condnum                      1  5.0    0.000    0.000    0.209    0.210
 dbcsr_col_vec_to_rep_row          6310 12.4    0.045    0.050    0.131    0.208
 arnoldi_init                       867 11.0    0.010    0.013    0.180    0.201
 quick_finalize                   43803 14.1    0.091    0.112    0.153    0.199
 xc_2nd_deriv_of_r                  400 10.0    0.003    0.036    0.015    0.195
 dbcsr_mm_multrec_init            11991 11.8    0.023    0.029    0.170    0.189
 arnoldi_conjugate_gradient           5  6.0    0.004    0.005    0.170    0.170
 dbcsr_merge_single_wm            18385 13.1    0.089    0.109    0.106    0.167
 dbcsr_dot                         2875  8.7    0.018    0.026    0.143    0.165
 dbcsr_sym_matrix_vector_mult      1108  8.3    0.017    0.019    0.140    0.164
 dbcsr_mm_csr_init                11991 12.8    0.118    0.130    0.147    0.161
 pw_grid_sort                         4  8.0    0.107    0.109    0.156    0.158
 dbcsr_switch_data_area          120174 13.9    0.111    0.113    0.148    0.155
 dbcsr_make_index_list            59955 11.8    0.136    0.154    0.136    0.154
 dbcsr_make_untransposed_blocks   15290 10.7    0.083    0.097    0.135    0.149
 Gram_Schmidt_ortho                4605 11.9    0.005    0.009    0.104    0.149
 dbcsr_copy                       18270  9.8    0.062    0.070    0.134    0.143
 setup_rec_index_2d               23982 11.8    0.133    0.139    0.133    0.139
 dbcsr_make_index_exist          242603 13.4    0.130    0.138    0.130    0.138
 mp_cart_rank                    407532  9.9    0.121    0.137    0.121    0.137
 -------------------------------------------------------------------------------

 The number of warnings for this run is : 2
 
 -------------------------------------------------------------------------------
  **** **** ******  **  PROGRAM ENDED AT                 2025-04-23 19:07:44.462
 ***** ** ***  *** **   PROGRAM RAN ON                              i03r10c01s12
 **    ****   ******    PROGRAM RAN BY                                   di38fab
 ***** **    ** ** **   PROGRAM PROCESS ID                                770323
  **** **  *******  **  PROGRAM STOPPED IN /hppfs/scratch/04/di38fab/07_MOL_non_
                                           aug/05_MOL_non_aug/05_MOL/W4-11+ALK/n
                                           a8/cc-pVDZ/TDDFT
