 DBCSR| CPU Multiplication driver                                           XSMM (U)
 DBCSR| Multrec recursion limit                                              512 (U)
 DBCSR| Multiplication stack size                                           1000 (D)
 DBCSR| Maximum elements for images                                    UNLIMITED (U)
 DBCSR| Multiplicative factor virtual images                                   1 (U)
 DBCSR| Use multiplication densification                                       T (D)
 DBCSR| Multiplication size stacks                                             3 (U)
 DBCSR| Use memory pool for CPU allocation                                     F (U)
 DBCSR| Number of 3D layers                                               SINGLE (U)
 DBCSR| Use MPI memory allocation                                              F (U)
 DBCSR| Use RMA algorithm                                                      F (U)
 DBCSR| Use Communication thread                                               T (U)
 DBCSR| Communication thread load                                             60 (D)
 DBCSR| MPI: My process id                                                     0
 DBCSR| MPI: Number of processes                                              80
 DBCSR| OMP: Current number of threads                                         8
 DBCSR| OMP: Max number of threads                                             8
 DBCSR| Split modifier for TAS multiplication algorithm                  1.0E+00 (U)


  **** **** ******  **  PROGRAM STARTED AT               2025-06-03 22:58:20.451
 ***** ** ***  *** **   PROGRAM STARTED ON                              n2cn0453
 **    ****   ******    PROGRAM STARTED BY                              metdyn02
 ***** **    ** ** **   PROGRAM PROCESS ID                               2124450
  **** **  *******  **  PROGRAM STARTED IN /scratch/hpc-prf-metdyn/metdyn02_Remi
                                           /10_MOL/05_MOL/aUKBqsEOTmq69kFe5R_nOg
                                           /5k_set_final_qzvp/ABEGEU/SZVSR/GW+BS
                                           E/RILIM

 CP2K| version string:                 CP2K version 2025.1 (Development Version)
 CP2K| source code revision number:                                  git:32ddf85
 CP2K| cp2kflags: omp libint fftw3 libxc libgrpp elpa parallel scalapack mpi_f08
 CP2K|             cosma xsmm plumed2 spglib libvori libbqb libvdwxc hdf5
 CP2K| is freely available from                            https://www.cp2k.org/
 CP2K| Program compiled at                         Mon May 19 11:32:37 CEST 2025
 CP2K| Program compiled on                                              n2login1
 CP2K| Program compiled for                                                local
 CP2K| Data directory path    /opt/software/pc2/EB-SW/software/CP2K/2024.1-foss-
 CP2K| Input file name                                                    GW.inp

 GLOBAL| Force Environment number                                              1
 GLOBAL| Basis set file name            /scratch/hpc-prf-metdyn/metdyn02_Remi/BA
 GLOBAL| Potential file name            /pc2/groups/hpc-prf-metdyn/metdyn02_Remi
 GLOBAL| MM Potential file name                                     MM_POTENTIAL
 GLOBAL| Coordinate file name                                      __STD_INPUT__
 GLOBAL| Method name                                                        CP2K
 GLOBAL| Project name                                                       MoS2
 GLOBAL| Run type                                                         ENERGY
 GLOBAL| FFT library                                                       FFTW3
 GLOBAL| Diagonalization library                                            ELPA
 GLOBAL| Cholesky decomposition library                                ScaLAPACK
 GLOBAL| DGEMM library                                                      BLAS
 GLOBAL| Minimum number of eigenvectors for ELPA usage                        16
 GLOBAL| Orthonormality check for eigenvectors                          DISABLED
 GLOBAL| Matrix multiplication library                                     COSMA
 GLOBAL| All-to-all communication in single precision                          F
 GLOBAL| FFTs using library dependent lengths                                  F
 GLOBAL| Grid backend                                                       AUTO
 GLOBAL| Global print level                                               MEDIUM
 GLOBAL| MPI I/O enabled                                                       T
 GLOBAL| Total number of message passing processes                            80
 GLOBAL| Number of threads for this process                                    8
 GLOBAL| This output is from process                                           0
 GLOBAL| OpenMP stack size per thread (OMP_STACKSIZE)                    default
 GLOBAL| CPU model name                          AMD EPYC 7763 64-Core Processor
 GLOBAL| CPUID                                                              1002

 MEMORY| system memory details [Kb]
 MEMORY|                        rank 0           min           max       average
 MEMORY| MemTotal            263897616     263897548     263897616     263897586
 MEMORY| MemFree             250704204     246238240     253431880     249798498
 MEMORY| Buffers                 47516         15524        123852         51393
 MEMORY| Cached                7933484       6146228      12699444       9176797
 MEMORY| Slab                  1787256       1147820       1877344       1623340
 MEMORY| SReclaimable           351292        188808        494872        302879
 MEMORY| MemLikelyFree       259036496     258931888     259874292     259329568


 *** Fundamental physical constants (SI units) ***

 *** Literature: B. J. Mohr and B. N. Taylor,
 ***             CODATA recommended values of the fundamental physical
 ***             constants: 2006, Web Version 5.1
 ***             http://physics.nist.gov/constants

 Speed of light in vacuum [m/s]                             2.99792458000000E+08
 Magnetic constant or permeability of vacuum [N/A**2]       1.25663706143592E-06
 Electric constant or permittivity of vacuum [F/m]          8.85418781762039E-12
 Planck constant (h) [J*s]                                  6.62606896000000E-34
 Planck constant (h-bar) [J*s]                              1.05457162825177E-34
 Elementary charge [C]                                      1.60217648700000E-19
 Electron mass [kg]                                         9.10938215000000E-31
 Electron g factor [ ]                                     -2.00231930436220E+00
 Proton mass [kg]                                           1.67262163700000E-27
 Fine-structure constant                                    7.29735253760000E-03
 Rydberg constant [1/m]                                     1.09737315685270E+07
 Avogadro constant [1/mol]                                  6.02214179000000E+23
 Boltzmann constant [J/K]                                   1.38065040000000E-23
 Atomic mass unit [kg]                                      1.66053878200000E-27
 Bohr radius [m]                                            5.29177208590000E-11

 *** Conversion factors ***

 [u] -> [a.u.]                                              1.82288848426455E+03
 [Angstrom] -> [Bohr] = [a.u.]                              1.88972613288564E+00
 [a.u.] = [Bohr] -> [Angstrom]                              5.29177208590000E-01
 [a.u.] -> [s]                                              2.41888432650478E-17
 [a.u.] -> [fs]                                             2.41888432650478E-02
 [a.u.] -> [J]                                              4.35974393937059E-18
 [a.u.] -> [N]                                              8.23872205491840E-08
 [a.u.] -> [K]                                              3.15774647902944E+05
 [a.u.] -> [kJ/mol]                                         2.62549961709828E+03
 [a.u.] -> [kcal/mol]                                       6.27509468713739E+02
 [a.u.] -> [Pa]                                             2.94210107994716E+13
 [a.u.] -> [bar]                                            2.94210107994716E+08
 [a.u.] -> [atm]                                            2.90362800883016E+08
 [a.u.] -> [eV]                                             2.72113838565563E+01
 [a.u.] -> [Hz]                                             6.57968392072181E+15
 [a.u.] -> [1/cm] (wave numbers)                            2.19474631370540E+05
 [a.u./Bohr**2] -> [1/cm]                                   5.14048714338585E+03
 

 CELL_TOP| Volume [angstrom^3]:                                     27000.000000
 CELL_TOP| Vector a [angstrom    30.000     0.000     0.000   |a| =    30.000000
 CELL_TOP| Vector b [angstrom     0.000    30.000     0.000   |b| =    30.000000
 CELL_TOP| Vector c [angstrom     0.000     0.000    30.000   |c| =    30.000000
 CELL_TOP| Angle (b,c), alpha [degree]:                                90.000000
 CELL_TOP| Angle (a,c), beta  [degree]:                                90.000000
 CELL_TOP| Angle (a,b), gamma [degree]:                                90.000000
 CELL_TOP| Numerically orthorhombic:                                         YES
 CELL_TOP| Periodicity                                                      NONE

 GENERATE|  Preliminary Number of Bonds generated:                             0
 GENERATE|  Achieved consistency in connectivity generation.

 CELL| Volume [angstrom^3]:                                         27000.000000
 CELL| Vector a [angstrom]:      30.000     0.000     0.000   |a| =    30.000000
 CELL| Vector b [angstrom]:       0.000    30.000     0.000   |b| =    30.000000
 CELL| Vector c [angstrom]:       0.000     0.000    30.000   |c| =    30.000000
 CELL| Angle (b,c), alpha [degree]:                                    90.000000
 CELL| Angle (a,c), beta  [degree]:                                    90.000000
 CELL| Angle (a,b), gamma [degree]:                                    90.000000
 CELL| Numerically orthorhombic:                                             YES
 CELL| Periodicity                                                          NONE

 CELL_REF| Volume [angstrom^3]:                                     27000.000000
 CELL_REF| Vector a [angstrom    30.000     0.000     0.000   |a| =    30.000000
 CELL_REF| Vector b [angstrom     0.000    30.000     0.000   |b| =    30.000000
 CELL_REF| Vector c [angstrom     0.000     0.000    30.000   |c| =    30.000000
 CELL_REF| Angle (b,c), alpha [degree]:                                90.000000
 CELL_REF| Angle (a,c), beta  [degree]:                                90.000000
 CELL_REF| Angle (a,b), gamma [degree]:                                90.000000
 CELL_REF| Numerically orthorhombic:                                         YES
 CELL_REF| Periodicity                                                      NONE

 *******************************************************************************
 *******************************************************************************
 **                                                                           **
 **     #####                         ##              ##                      **
 **    ##   ##            ##          ##              ##                      **
 **   ##     ##                       ##            ######                    **
 **   ##     ##  ##   ##  ##   #####  ##  ##   ####   ##    #####    #####    **
 **   ##     ##  ##   ##  ##  ##      ## ##   ##      ##   ##   ##  ##   ##   **
 **   ##  ## ##  ##   ##  ##  ##      ####     ###    ##   ######   ######    **
 **    ##  ###   ##   ##  ##  ##      ## ##      ##   ##   ##       ##        **
 **     #######   #####   ##   #####  ##  ##  ####    ##    #####   ##        **
 **           ##                                                    ##        **
 **                                                                           **
 **                                                ... make the atoms dance   **
 **                                                                           **
 **            Copyright (C) by CP2K developers group (2000-2025)             **
 **                      J. Chem. Phys. 152, 194103 (2020)                    **
 **                                                                           **
 *******************************************************************************

 DFT| Spin restricted Kohn-Sham (RKS) calculation                            RKS
 DFT| Multiplicity                                                             1
 DFT| Number of spin states                                                    1
 DFT| Charge                                                                   0
 DFT| Self-interaction correction (SIC)                                       NO
 DFT| Cutoffs: density                                              1.000000E-10
 DFT|          gradient                                             1.000000E-10
 DFT|          tau                                                  1.000000E-10
 DFT|          cutoff_smoothing_range                               0.000000E+00
 DFT| XC density smoothing                                                  NONE
 DFT| XC derivatives                                                          PW

 FUNCTIONAL| PBE:
 FUNCTIONAL| J.P.Perdew, K.Burke, M.Ernzerhof, Phys. Rev. Letter, vol. 77, n 18,
 FUNCTIONAL|  pp. 3865-3868, (1996)sx=0.750sc=1.000{spin unpolarized}           


 QS| Method:                                                                GAPW
 QS| Density plane wave grid type                        NON-SPHERICAL FULLSPACE
 QS| Number of grid levels:                                                    4
 QS| Density cutoff [a.u.]:                                                250.0
 QS| Multi grid cutoff [a.u.]: 1) grid level                               250.0
 QS|                           2) grid level                                83.3
 QS|                           3) grid level                                27.8
 QS|                           4) grid level                                 9.3
 QS| Grid level progression factor:                                          3.0
 QS| Relative density cutoff [a.u.]:                                        50.0
 QS| Interaction thresholds: eps_pgf_orb:                                1.0E-12
 QS|                         eps_filter_matrix:                          0.0E+00
 QS|                         eps_core_charge:                            1.0E-14
 QS|                         eps_rho_gspace:                             1.0E-12
 QS|                         eps_rho_rspace:                             1.0E-12
 QS|                         eps_gvg_rspace:                             1.0E-06
 QS|                         eps_ppl:                                    1.0E-02
 QS|                         eps_ppnl:                                   1.0E-08
 QS| GAPW|      One center basis from orbital basis primitives
 QS| GAPW|                   eps_fit:                                    1.0E-04
 QS| GAPW|                   eps_iso:                                    1.0E-12
 QS| GAPW|                   eps_svd:                                    1.0E-08
 QS| GAPW|                   eps_cpc:                                    1.0E-12
 QS| GAPW|   atom-r-grid: quadrature:                                     GC_LOG
 QS| GAPW|      atom-s-grid:  max l :                                          4
 QS| GAPW|      max_l_rho0 :                                                   2
 QS| GAPW|      At least one kind is NOT PAW, i.e. it has only soft AO 
 QS| GAPW|      The NOT PAW atoms are treated fully GPW


 ATOMIC KIND INFORMATION

  1. Atomic kind: C                                     Number of atoms:       7

     Orbital Basis Set                                      aug-SZV-MOLOPT-ae-SR

       Number of orbital shell sets:                                           2
       Number of orbital shells:                                               6
       Number of primitive Cartesian functions:                                7
       Number of Cartesian basis functions:                                   15
       Number of spherical basis functions:                                   14
       Norm type:                                                              2

       Normalised Cartesian orbitals:

                        Set   Shell   Orbital            Exponent    Coefficient

                          1       1    2s                0.114559       0.000000
                                                         0.222290       0.161536
                                                         0.683483       0.214036
                                                         2.941249      -0.160017

                          1       2    3s                0.114559       0.078076
                                                         0.222290       0.130402
                                                         0.683483      -0.084834
                                                         2.941249       0.041379

                          1       3    3px               0.114559       0.000000
                                                         0.222290       0.085276
                                                         0.683483       0.538304
                                                         2.941249       0.856045
                          1       3    3py               0.114559       0.000000
                                                         0.222290       0.085276
                                                         0.683483       0.538304
                                                         2.941249       0.856045
                          1       3    3pz               0.114559       0.000000
                                                         0.222290       0.085276
                                                         0.683483       0.538304
                                                         2.941249       0.856045

                          1       4    4px               0.114559       0.224492
                                                         0.222290      -0.546182
                                                         0.683483       0.918493
                                                         2.941249      -0.348342
                          1       4    4py               0.114559       0.224492
                                                         0.222290      -0.546182
                                                         0.683483       0.918493
                                                         2.941249      -0.348342
                          1       4    4pz               0.114559       0.224492
                                                         0.222290      -0.546182
                                                         0.683483       0.918493
                                                         2.941249      -0.348342

                          1       5    4dx2              0.114559       0.004023
                                                         0.222290       0.096934
                                                         0.683483       0.116751
                                                         2.941249       0.357653
                          1       5    4dxy              0.114559       0.006968
                                                         0.222290       0.167895
                                                         0.683483       0.202218
                                                         2.941249       0.619473
                          1       5    4dxz              0.114559       0.006968
                                                         0.222290       0.167895
                                                         0.683483       0.202218
                                                         2.941249       0.619473
                          1       5    4dy2              0.114559       0.004023
                                                         0.222290       0.096934
                                                         0.683483       0.116751
                                                         2.941249       0.357653
                          1       5    4dyz              0.114559       0.006968
                                                         0.222290       0.167895
                                                         0.683483       0.202218
                                                         2.941249       0.619473
                          1       5    4dz2              0.114559       0.004023
                                                         0.222290       0.096934
                                                         0.683483       0.116751
                                                         2.941249       0.357653

                          2       1    1s               71.616837       2.707814
                                                        13.045096       2.618880
                                                         3.530512       0.816191

     RI Auxiliary Basis Set             RI_aug-SZV-MOLOPT-ae-SR_N_RI_075_s_p_d_f

       Number of orbital shell sets:                                          19
       Number of orbital shells:                                              19
       Number of primitive Cartesian functions:                               19
       Number of Cartesian basis functions:                                   99
       Number of spherical basis functions:                                   75
       Norm type:                                                              2

       Normalised Cartesian orbitals:

                        Set   Shell   Orbital            Exponent    Coefficient

                          1       1    7px               0.280788       0.291348
                          1       1    7py               0.280788       0.291348
                          1       1    7pz               0.280788       0.291348

                          2       1    1s                0.306994       0.293939

                          3       1   12dx2              0.425885       0.369548
                          3       1   12dxy              0.425885       0.640076
                          3       1   12dxz              0.425885       0.640076
                          3       1   12dy2              0.425885       0.369548
                          3       1   12dyz              0.425885       0.640076
                          3       1   12dz2              0.425885       0.369548

                          4       1   15fx3              0.441457       0.233859
                          4       1   15fx2y             0.441457       0.522924
                          4       1   15fx2z             0.441457       0.522924
                          4       1   15fxy2             0.441457       0.522924
                          4       1   15fxyz             0.441457       0.905731
                          4       1   15fxz2             0.441457       0.522924
                          4       1   15fy3              0.441457       0.233859
                          4       1   15fy2z             0.441457       0.522924
                          4       1   15fyz2             0.441457       0.522924
                          4       1   15fz3              0.441457       0.233859

                          5       1    8px               0.477699       0.566087
                          5       1    8py               0.477699       0.566087
                          5       1    8pz               0.477699       0.566087

                          6       1   16fx3              0.901688       1.166355
                          6       1   16fx2y             0.901688       2.608049
                          6       1   16fx2z             0.901688       2.608049
                          6       1   16fxy2             0.901688       2.608049
                          6       1   16fxyz             0.901688       4.517273
                          6       1   16fxz2             0.901688       2.608049
                          6       1   16fy3              0.901688       1.166355
                          6       1   16fy2z             0.901688       2.608049
                          6       1   16fyz2             0.901688       2.608049
                          6       1   16fz3              0.901688       1.166355

                          7       1   18gx4              0.934410       0.923449
                          7       1   18gx3y             0.934410       2.443217
                          7       1   18gx3z             0.934410       2.443217
                          7       1   18gx2y2            0.934410       3.154180
                          7       1   18gx2yz            0.934410       5.463200
                          7       1   18gx2z2            0.934410       3.154180
                          7       1   18gxy3             0.934410       2.443217
                          7       1   18gxy2z            0.934410       5.463200
                          7       1   18gxyz2            0.934410       5.463200
                          7       1   18gxz3             0.934410       2.443217
                          7       1   18gy4              0.934410       0.923449
                          7       1   18gy3z             0.934410       2.443217
                          7       1   18gy2z2            0.934410       3.154180
                          7       1   18gyz3             0.934410       2.443217
                          7       1   18gz4              0.934410       0.923449

                          8       1    2s                0.946862       0.684109

                          9       1    3s                1.268857       0.852059

                         10       1   13dx2              1.288245       2.563934
                         10       1   13dxy              1.288245       4.440865
                         10       1   13dxz              1.288245       4.440865
                         10       1   13dy2              1.288245       2.563934
                         10       1   13dyz              1.288245       4.440865
                         10       1   13dz2              1.288245       2.563934

                         11       1    9px               1.399800       2.170315
                         11       1    9py               1.399800       2.170315
                         11       1    9pz               1.399800       2.170315

                         12       1   19gx4              1.535589       3.619858
                         12       1   19gx3y             1.535589       9.577244
                         12       1   19gx3z             1.535589       9.577244
                         12       1   19gx2y2            1.535589      12.364169
                         12       1   19gx2yz            1.535589      21.415368
                         12       1   19gx2z2            1.535589      12.364169
                         12       1   19gxy3             1.535589       9.577244
                         12       1   19gxy2z            1.535589      21.415368
                         12       1   19gxyz2            1.535589      21.415368
                         12       1   19gxz3             1.535589       9.577244
                         12       1   19gy4              1.535589       3.619858
                         12       1   19gy3z             1.535589       9.577244
                         12       1   19gy2z2            1.535589      12.364169
                         12       1   19gyz3             1.535589       9.577244
                         12       1   19gz4              1.535589       3.619858

                         13       1   14dx2              2.335379       7.261643
                         13       1   14dxy              2.335379      12.577535
                         13       1   14dxz              2.335379      12.577535
                         13       1   14dy2              2.335379       7.261643
                         13       1   14dyz              2.335379      12.577535
                         13       1   14dz2              2.335379       7.261643

                         14       1   17fx3              2.532110      11.906668
                         14       1   17fx2y             2.532110      26.624119
                         14       1   17fx2z             2.532110      26.624119
                         14       1   17fxy2             2.532110      26.624119
                         14       1   17fxyz             2.532110      46.114327
                         14       1   17fxz2             2.532110      26.624119
                         14       1   17fy3              2.532110      11.906668
                         14       1   17fy2z             2.532110      26.624119
                         14       1   17fyz2             2.532110      26.624119
                         14       1   17fz3              2.532110      11.906668

                         15       1   10px               4.817840      10.174323
                         15       1   10py               4.817840      10.174323
                         15       1   10pz               4.817840      10.174323

                         16       1    4s                4.925178       2.356278

                         17       1   11px              16.202890      46.337296
                         17       1   11py              16.202890      46.337296
                         17       1   11pz              16.202890      46.337296

                         18       1    5s               21.643648       7.151678

                         19       1    6s               78.500404      18.795938

       Atomic covalent radius [Angstrom]:                                  0.770

       Atomic van der Waals radius [Angstrom]:                             1.700

     The atoms of this atomic kind are PAW atoms (GAPW):
       Hard Gaussian function radius:                                      1.512
       Rho0 radius:                                                        1.512
       Maximum GTO radius used for PAW projector construction:            24.566

     GAPW Soft Basis Set                               aug-SZV-MOLOPT-ae-SR_soft

       Number of orbital shell sets:                                           2
       Number of orbital shells:                                               6
       Number of primitive Cartesian functions:                                5
       Number of Cartesian basis functions:                                   15
       Number of spherical basis functions:                                   14
       Norm type:                                                              2

       Normalised Cartesian orbitals:

                        Set   Shell   Orbital            Exponent    Coefficient

                          1       1    2s                0.114559       0.000000
                                                         0.222290       0.161536
                                                         0.683483       0.214036
                                                         2.941249      -0.160017

                          1       2    3s                0.114559       0.078076
                                                         0.222290       0.130402
                                                         0.683483      -0.084834
                                                         2.941249       0.041379

                          1       3    3px               0.114559       0.000000
                                                         0.222290       0.085276
                                                         0.683483       0.538304
                                                         2.941249       0.856045
                          1       3    3py               0.114559       0.000000
                                                         0.222290       0.085276
                                                         0.683483       0.538304
                                                         2.941249       0.856045
                          1       3    3pz               0.114559       0.000000
                                                         0.222290       0.085276
                                                         0.683483       0.538304
                                                         2.941249       0.856045

                          1       4    4px               0.114559       0.224492
                                                         0.222290      -0.546182
                                                         0.683483       0.918493
                                                         2.941249      -0.348342
                          1       4    4py               0.114559       0.224492
                                                         0.222290      -0.546182
                                                         0.683483       0.918493
                                                         2.941249      -0.348342
                          1       4    4pz               0.114559       0.224492
                                                         0.222290      -0.546182
                                                         0.683483       0.918493
                                                         2.941249      -0.348342

                          1       5    4dx2              0.114559       0.004023
                                                         0.222290       0.096934
                                                         0.683483       0.116751
                                                         2.941249       0.357653
                          1       5    4dxy              0.114559       0.006968
                                                         0.222290       0.167895
                                                         0.683483       0.202218
                                                         2.941249       0.619473
                          1       5    4dxz              0.114559       0.006968
                                                         0.222290       0.167895
                                                         0.683483       0.202218
                                                         2.941249       0.619473
                          1       5    4dy2              0.114559       0.004023
                                                         0.222290       0.096934
                                                         0.683483       0.116751
                                                         2.941249       0.357653
                          1       5    4dyz              0.114559       0.006968
                                                         0.222290       0.167895
                                                         0.683483       0.202218
                                                         2.941249       0.619473
                          1       5    4dz2              0.114559       0.004023
                                                         0.222290       0.096934
                                                         0.683483       0.116751
                                                         2.941249       0.357653

                          2       1    1s                3.530512       0.816191

     AE Potential information for                                            ALL

       Description:                                       All-electron potential
                                          Krack, Parrinello, PCCP 2, 2105 (2000)

       Gaussian exponent of the core charge distribution:               4.109048
       Electronic configuration (s p d ...):                           4   2   0

  2. Atomic kind: H                                     Number of atoms:       5

     Orbital Basis Set                                      aug-SZV-MOLOPT-ae-SR

       Number of orbital shell sets:                                           1
       Number of orbital shells:                                               4
       Number of primitive Cartesian functions:                                4
       Number of Cartesian basis functions:                                    6
       Number of spherical basis functions:                                    6
       Norm type:                                                              2

       Normalised Cartesian orbitals:

                        Set   Shell   Orbital            Exponent    Coefficient

                          1       1    2s                0.065428       0.000000
                                                         0.168855       0.083474
                                                         0.623914       0.267839
                                                         3.425251       0.276934

                          1       2    3s                0.065428      -0.066952
                                                         0.168855       0.261968
                                                         0.623914       0.081548
                                                         3.425251      -0.022414

                          1       3    4s                0.065428       0.165615
                                                         0.168855      -0.226449
                                                         0.623914      -0.005802
                                                         3.425251       0.005451

                          1       4    3px               0.065428       0.053063
                                                         0.168855      -0.030502
                                                         0.623914       0.062721
                                                         3.425251       0.019012
                          1       4    3py               0.065428       0.053063
                                                         0.168855      -0.030502
                                                         0.623914       0.062721
                                                         3.425251       0.019012
                          1       4    3pz               0.065428       0.053063
                                                         0.168855      -0.030502
                                                         0.623914       0.062721
                                                         3.425251       0.019012

     RI Auxiliary Basis Set             RI_aug-SZV-MOLOPT-ae-SR_N_RI_035_s_p_d_f

       Number of orbital shell sets:                                          15
       Number of orbital shells:                                              15
       Number of primitive Cartesian functions:                               15
       Number of Cartesian basis functions:                                   37
       Number of spherical basis functions:                                   35
       Norm type:                                                              2

       Normalised Cartesian orbitals:

                        Set   Shell   Orbital            Exponent    Coefficient

                          1       1    1s                0.236911       0.242019

                          2       1    8px               0.347892       0.380843
                          2       1    8py               0.347892       0.380843
                          2       1    8pz               0.347892       0.380843

                          3       1    2s                0.423897       0.374417

                          4       1    9px               0.493166       0.589089
                          4       1    9py               0.493166       0.589089
                          4       1    9pz               0.493166       0.589089

                          5       1   14dx2              0.625366       0.723843
                          5       1   14dxy              0.625366       1.253733
                          5       1   14dxz              0.625366       1.253733
                          5       1   14dy2              0.625366       0.723843
                          5       1   14dyz              0.625366       1.253733
                          5       1   14dz2              0.625366       0.723843

                          6       1   10px               0.699103       0.911206
                          6       1   10py               0.699103       0.911206
                          6       1   10pz               0.699103       0.911206

                          7       1    3s                0.758464       0.579244

                          8       1   11px               0.991036       1.409457
                          8       1   11py               0.991036       1.409457
                          8       1   11pz               0.991036       1.409457

                          9       1   15dx2              1.286053       2.556305
                          9       1   15dxy              1.286053       4.427650
                          9       1   15dxz              1.286053       4.427650
                          9       1   15dy2              1.286053       2.556305
                          9       1   15dyz              1.286053       4.427650
                          9       1   15dz2              1.286053       2.556305

                         10       1    4s                1.357095       0.896123

                         11       1   12px               1.404875       2.180155
                         11       1   12py               1.404875       2.180155
                         11       1   12pz               1.404875       2.180155

                         12       1   13px               1.991527       3.372273
                         12       1   13py               1.991527       3.372273
                         12       1   13pz               1.991527       3.372273

                         13       1    5s                2.428204       1.386354

                         14       1    6s                4.344704       2.144768

                         15       1    7s                7.773833       3.318077

       Atomic covalent radius [Angstrom]:                                  0.320

       Atomic van der Waals radius [Angstrom]:                             1.090

     AE Potential information for                                            ALL

       Description:                                       All-electron potential
                                          Krack, Parrinello, PCCP 2, 2105 (2000)

       Gaussian exponent of the core charge distribution:              12.500000
       Electronic configuration (s p d ...):                           1   0   0

  3. Atomic kind: O                                     Number of atoms:       1

     Orbital Basis Set                                      aug-SZV-MOLOPT-ae-SR

       Number of orbital shell sets:                                           2
       Number of orbital shells:                                               6
       Number of primitive Cartesian functions:                                7
       Number of Cartesian basis functions:                                   15
       Number of spherical basis functions:                                   14
       Norm type:                                                              2

       Normalised Cartesian orbitals:

                        Set   Shell   Orbital            Exponent    Coefficient

                          1       1    1s                0.162492       0.000000
                                                         0.380389       0.241686
                                                         1.169596       0.320234
                                                         5.033151      -0.239413

                          1       2    2s                0.162492       0.120425
                                                         0.380389       0.131001
                                                         1.169596      -0.000041
                                                         5.033151      -0.089217

                          1       3    2px               0.162492       0.000000
                                                         0.380389       0.166903
                                                         1.169596       1.053568
                                                         5.033151       1.675450
                          1       3    2py               0.162492       0.000000
                                                         0.380389       0.166903
                                                         1.169596       1.053568
                                                         5.033151       1.675450
                          1       3    2pz               0.162492       0.000000
                                                         0.380389       0.166903
                                                         1.169596       1.053568
                                                         5.033151       1.675450

                          1       4    3px               0.162492       0.001278
                                                         0.380389       0.422682
                                                         1.169596       0.000775
                                                         5.033151       0.003884
                          1       4    3py               0.162492       0.001278
                                                         0.380389       0.422682
                                                         1.169596       0.000775
                                                         5.033151       0.003884
                          1       4    3pz               0.162492       0.001278
                                                         0.380389       0.422682
                                                         1.169596       0.000775
                                                         5.033151       0.003884

                          1       5    3dx2              0.162492      -0.037898
                                                         0.380389       0.380180
                                                         1.169596       0.208664
                                                         5.033151       1.207157
                          1       5    3dxy              0.162492      -0.065641
                                                         0.380389       0.658491
                                                         1.169596       0.361417
                                                         5.033151       2.090858
                          1       5    3dxz              0.162492      -0.065641
                                                         0.380389       0.658491
                                                         1.169596       0.361417
                                                         5.033151       2.090858
                          1       5    3dy2              0.162492      -0.037898
                                                         0.380389       0.380180
                                                         1.169596       0.208664
                                                         5.033151       1.207157
                          1       5    3dyz              0.162492      -0.065641
                                                         0.380389       0.658491
                                                         1.169596       0.361417
                                                         5.033151       2.090858
                          1       5    3dz2              0.162492      -0.037898
                                                         0.380389       0.380180
                                                         1.169596       0.208664
                                                         5.033151       1.207157

                          2       1    1s              130.709321       4.251943
                                                        23.808866       4.112294
                                                         6.443608       1.281623

     RI Auxiliary Basis Set             RI_aug-SZV-MOLOPT-ae-SR_N_RI_094_s_p_d_f

       Number of orbital shell sets:                                          24
       Number of orbital shells:                                              24
       Number of primitive Cartesian functions:                               24
       Number of Cartesian basis functions:                                  121
       Number of spherical basis functions:                                   94
       Norm type:                                                              2

       Normalised Cartesian orbitals:

                        Set   Shell   Orbital            Exponent    Coefficient

                          1       1   14dx2              0.302855       0.203503
                          1       1   14dxy              0.302855       0.352477
                          1       1   14dxz              0.302855       0.352477
                          1       1   14dy2              0.302855       0.203503
                          1       1   14dyz              0.302855       0.352477
                          1       1   14dz2              0.302855       0.203503

                          2       1    1s                0.351583       0.325410

                          3       1   15dx2              0.572744       0.620641
                          3       1   15dxy              0.572744       1.074983
                          3       1   15dxz              0.572744       1.074983
                          3       1   15dy2              0.572744       0.620641
                          3       1   15dyz              0.572744       1.074983
                          3       1   15dz2              0.572744       0.620641

                          4       1    8px               0.604446       0.759690
                          4       1    8py               0.604446       0.759690
                          4       1    8pz               0.604446       0.759690

                          5       1    2s                0.644875       0.512881

                          6       1    9px               0.823718       1.118571
                          6       1    9py               0.823718       1.118571
                          6       1    9pz               0.823718       1.118571

                          7       1   23gx4              0.975015       1.038045
                          7       1   23gx3y             0.975015       2.746409
                          7       1   23gx3z             0.975015       2.746409
                          7       1   23gx2y2            0.975015       3.545599
                          7       1   23gx2yz            0.975015       6.141158
                          7       1   23gx2z2            0.975015       3.545599
                          7       1   23gxy3             0.975015       2.746409
                          7       1   23gxy2z            0.975015       6.141158
                          7       1   23gxyz2            0.975015       6.141158
                          7       1   23gxz3             0.975015       2.746409
                          7       1   23gy4              0.975015       1.038045
                          7       1   23gy3z             0.975015       2.746409
                          7       1   23gy2z2            0.975015       3.545599
                          7       1   23gyz3             0.975015       2.746409
                          7       1   23gz4              0.975015       1.038045

                          8       1   20fx3              1.042512       1.616728
                          8       1   20fx2y             1.042512       3.615113
                          8       1   20fx2z             1.042512       3.615113
                          8       1   20fxy2             1.042512       3.615113
                          8       1   20fxyz             1.042512       6.261560
                          8       1   20fxz2             1.042512       3.615113
                          8       1   20fy3              1.042512       1.616728
                          8       1   20fy2z             1.042512       3.615113
                          8       1   20fyz2             1.042512       3.615113
                          8       1   20fz3              1.042512       1.616728

                          9       1   16dx2              1.084348       1.896507
                          9       1   16dxy              1.084348       3.284847
                          9       1   16dxz              1.084348       3.284847
                          9       1   16dy2              1.084348       1.896507
                          9       1   16dyz              1.084348       3.284847
                          9       1   16dz2              1.084348       1.896507

                         10       1    3s                1.789865       1.102872

                         11       1   17dx2              2.049940       5.780383
                         11       1   17dxy              2.049940      10.011917
                         11       1   17dxz              2.049940      10.011917
                         11       1   17dy2              2.049940       5.780383
                         11       1   17dyz              2.049940      10.011917
                         11       1   17dz2              2.049940       5.780383

                         12       1   10px               2.080883       3.562458
                         12       1   10py               2.080883       3.562458
                         12       1   10pz               2.080883       3.562458

                         13       1   21fx3              2.267771       9.290791
                         13       1   21fx2y             2.267771      20.774841
                         13       1   21fx2z             2.267771      20.774841
                         13       1   21fxy2             2.267771      20.774841
                         13       1   21fxyz             2.267771      35.983079
                         13       1   21fxz2             2.267771      20.774841
                         13       1   21fy3              2.267771       9.290791
                         13       1   21fy2z             2.267771      20.774841
                         13       1   21fyz2             2.267771      20.774841
                         13       1   21fz3              2.267771       9.290791

                         14       1   24gx4              2.269901      10.603631
                         14       1   24gx3y             2.269901      28.054571
                         14       1   24gx3z             2.269901      28.054571
                         14       1   24gx2y2            2.269901      36.218295
                         14       1   24gx2yz            2.269901      62.731928
                         14       1   24gx2z2            2.269901      36.218295
                         14       1   24gxy3             2.269901      28.054571
                         14       1   24gxy2z            2.269901      62.731928
                         14       1   24gxyz2            2.269901      62.731928
                         14       1   24gxz3             2.269901      28.054571
                         14       1   24gy4              2.269901      10.603631
                         14       1   24gy3z             2.269901      28.054571
                         14       1   24gy2z2            2.269901      36.218295
                         14       1   24gyz3             2.269901      28.054571
                         14       1   24gz4              2.269901      10.603631

                         15       1   18dx2              3.875832      17.621715
                         15       1   18dxy              3.875832      30.521706
                         15       1   18dxz              3.875832      30.521706
                         15       1   18dy2              3.875832      17.621715
                         15       1   18dyz              3.875832      30.521706
                         15       1   18dz2              3.875832      17.621715

                         16       1   22fx3              4.795051      50.088644
                         16       1   22fx2y             4.795051     112.001612
                         16       1   22fx2z             4.795051     112.001612
                         16       1   22fxy2             4.795051     112.001612
                         16       1   22fxyz             4.795051     193.992483
                         16       1   22fxz2             4.795051     112.001612
                         16       1   22fy3              4.795051      50.088644
                         16       1   22fy2z             4.795051     112.001612
                         16       1   22fyz2             4.795051     112.001612
                         16       1   22fz3              4.795051      50.088644

                         17       1   11px               5.513293      12.042148
                         17       1   11py               5.513293      12.042148
                         17       1   11pz               5.513293      12.042148

                         18       1    4s                6.240947       2.814155

                         19       1   19dx2              7.321398      53.635085
                         19       1   19dxy              7.321398      92.898692
                         19       1   19dxz              7.321398      92.898692
                         19       1   19dy2              7.321398      53.635085
                         19       1   19dyz              7.321398      92.898692
                         19       1   19dz2              7.321398      53.635085

                         20       1   12px              13.137317      35.651142
                         20       1   12py              13.137317      35.651142
                         20       1   12pz              13.137317      35.651142

                         21       1    5s               18.794911       6.433396

                         22       1   13px              31.295130     105.508159
                         22       1   13py              31.295130     105.508159
                         22       1   13pz              31.295130     105.508159

                         23       1    6s               55.276172      14.448194

                         24       1    7s              162.769315      32.478016

       Atomic covalent radius [Angstrom]:                                  0.730

       Atomic van der Waals radius [Angstrom]:                             1.520

     The atoms of this atomic kind are PAW atoms (GAPW):
       Hard Gaussian function radius:                                      1.512
       Rho0 radius:                                                        1.512
       Maximum GTO radius used for PAW projector construction:            24.566

     GAPW Soft Basis Set                               aug-SZV-MOLOPT-ae-SR_soft

       Number of orbital shell sets:                                           2
       Number of orbital shells:                                               6
       Number of primitive Cartesian functions:                                3
       Number of Cartesian basis functions:                                   15
       Number of spherical basis functions:                                   14
       Norm type:                                                              2

       Normalised Cartesian orbitals:

                        Set   Shell   Orbital            Exponent    Coefficient

                          1       1    1s                0.162492       0.000000
                                                         0.380389       0.241686
                                                         1.169596       0.320234

                          1       2    2s                0.162492       0.120425
                                                         0.380389       0.131001
                                                         1.169596      -0.000041

                          1       3    2px               0.162492       0.000000
                                                         0.380389       0.166903
                                                         1.169596       1.053568
                          1       3    2py               0.162492       0.000000
                                                         0.380389       0.166903
                                                         1.169596       1.053568
                          1       3    2pz               0.162492       0.000000
                                                         0.380389       0.166903
                                                         1.169596       1.053568

                          1       4    3px               0.162492       0.001278
                                                         0.380389       0.422682
                                                         1.169596       0.000775
                          1       4    3py               0.162492       0.001278
                                                         0.380389       0.422682
                                                         1.169596       0.000775
                          1       4    3pz               0.162492       0.001278
                                                         0.380389       0.422682
                                                         1.169596       0.000775

                          1       5    3dx2              0.162492      -0.037898
                                                         0.380389       0.380180
                                                         1.169596       0.208664
                          1       5    3dxy              0.162492      -0.065641
                                                         0.380389       0.658491
                                                         1.169596       0.361417
                          1       5    3dxz              0.162492      -0.065641
                                                         0.380389       0.658491
                                                         1.169596       0.361417
                          1       5    3dy2              0.162492      -0.037898
                                                         0.380389       0.380180
                                                         1.169596       0.208664
                          1       5    3dyz              0.162492      -0.065641
                                                         0.380389       0.658491
                                                         1.169596       0.361417
                          1       5    3dz2              0.162492      -0.037898
                                                         0.380389       0.380180
                                                         1.169596       0.208664

                          2       1    1s         

     AE Potential information for                                            ALL

       Description:                                       All-electron potential
                                          Krack, Parrinello, PCCP 2, 2105 (2000)

       Gaussian exponent of the core charge distribution:               8.154466
       Electronic configuration (s p d ...):                           4   4   0

  4. Atomic kind: N                                     Number of atoms:       1

     Orbital Basis Set                                      aug-SZV-MOLOPT-ae-SR

       Number of orbital shell sets:                                           2
       Number of orbital shells:                                               6
       Number of primitive Cartesian functions:                                7
       Number of Cartesian basis functions:                                   15
       Number of spherical basis functions:                                   14
       Norm type:                                                              2

       Normalised Cartesian orbitals:

                        Set   Shell   Orbital            Exponent    Coefficient

                          1       1    1s                0.112012       0.000000
                                                         0.285714       0.194997
                                                         0.878497       0.258372
                                                         3.780456      -0.193164

                          1       2    2s                0.112012       0.083551
                                                         0.285714      -0.189186
                                                         0.878497      -0.469875
                                                         3.780456      -0.002085

                          1       3    2px               0.112012       0.000000
                                                         0.285714       0.116706
                                                         0.878497       0.736704
                                                         3.780456       1.171553
                          1       3    2py               0.112012       0.000000
                                                         0.285714       0.116706
                                                         0.878497       0.736704
                                                         3.780456       1.171553
                          1       3    2pz               0.112012       0.000000
                                                         0.285714       0.116706
                                                         0.878497       0.736704
                                                         3.780456       1.171553

                          1       4    3px               0.112012       0.141957
                                                         0.285714      -0.286713
                                                         0.878497       0.074784
                                                         3.780456       0.008085
                          1       4    3py               0.112012       0.141957
                                                         0.285714      -0.286713
                                                         0.878497       0.074784
                                                         3.780456       0.008085
                          1       4    3pz               0.112012       0.141957
                                                         0.285714      -0.286713
                                                         0.878497       0.074784
                                                         3.780456       0.008085

                          1       5    3dx2              0.112012      -0.000364
                                                         0.285714       0.186009
                                                         0.878497      -0.044751
                                                         3.780456       1.815169
                          1       5    3dxy              0.112012      -0.000630
                                                         0.285714       0.322177
                                                         0.878497      -0.077512
                                                         3.780456       3.143965
                          1       5    3dxz              0.112012      -0.000630
                                                         0.285714       0.322177
                                                         0.878497      -0.077512
                                                         3.780456       3.143965
                          1       5    3dy2              0.112012      -0.000364
                                                         0.285714       0.186009
                                                         0.878497      -0.044751
                                                         3.780456       1.815169
                          1       5    3dyz              0.112012      -0.000630
                                                         0.285714       0.322177
                                                         0.878497      -0.077512
                                                         3.780456       3.143965
                          1       5    3dz2              0.112012      -0.000364
                                                         0.285714       0.186009
                                                         0.878497      -0.044751
                                                         3.780456       1.815169

                          2       1    1s               99.106169       3.454881
                                                        18.052312       3.341410
                                                         4.885660       1.041372

     RI Auxiliary Basis Set             RI_aug-SZV-MOLOPT-ae-SR_N_RI_089_s_p_d_f

       Number of orbital shell sets:                                          21
       Number of orbital shells:                                              21
       Number of primitive Cartesian functions:                               21
       Number of Cartesian basis functions:                                  120
       Number of spherical basis functions:                                   89
       Norm type:                                                              2

       Normalised Cartesian orbitals:

                        Set   Shell   Orbital            Exponent    Coefficient

                          1       1    1s                0.267502       0.265097

                          2       1    7px               0.363169       0.401861
                          2       1    7py               0.363169       0.401861
                          2       1    7pz               0.363169       0.401861

                          3       1   12dx2              0.369517       0.288250
                          3       1   12dxy              0.369517       0.499264
                          3       1   12dxz              0.369517       0.499264
                          3       1   12dy2              0.369517       0.288250
                          3       1   12dyz              0.369517       0.499264
                          3       1   12dz2              0.369517       0.288250

                          4       1    2s                0.470345       0.404783

                          5       1   16fx3              0.516119       0.332385
                          5       1   16fx2y             0.516119       0.743236
                          5       1   16fx2z             0.516119       0.743236
                          5       1   16fxy2             0.516119       0.743236
                          5       1   16fxyz             0.516119       1.287322
                          5       1   16fxz2             0.516119       0.743236
                          5       1   16fy3              0.516119       0.332385
                          5       1   16fy2z             0.516119       0.743236
                          5       1   16fyz2             0.516119       0.743236
                          5       1   16fz3              0.516119       0.332385

                          6       1   13dx2              0.573630       0.622322
                          6       1   13dxy              0.573630       1.077893
                          6       1   13dxz              0.573630       1.077893
                          6       1   13dy2              0.573630       0.622322
                          6       1   13dyz              0.573630       1.077893
                          6       1   13dz2              0.573630       0.622322

                          7       1    8px               0.636008       0.809596
                          7       1    8py               0.636008       0.809596
                          7       1    8pz               0.636008       0.809596

                          8       1   19gx4              0.870859       0.760838
                          8       1   19gx3y             0.870859       2.012988
                          8       1   19gx3z             0.870859       2.012988
                          8       1   19gx2y2            0.870859       2.598756
                          8       1   19gx2yz            0.870859       4.501178
                          8       1   19gx2z2            0.870859       2.598756
                          8       1   19gxy3             0.870859       2.012988
                          8       1   19gxy2z            0.870859       4.501178
                          8       1   19gxyz2            0.870859       4.501178
                          8       1   19gxz3             0.870859       2.012988
                          8       1   19gy4              0.870859       0.760838
                          8       1   19gy3z             0.870859       2.012988
                          8       1   19gy2z2            0.870859       2.598756
                          8       1   19gyz3             0.870859       2.012988
                          8       1   19gz4              0.870859       0.760838

                          9       1   17fx3              1.154647       2.034537
                          9       1   17fx2y             1.154647       4.549363
                          9       1   17fx2z             1.154647       4.549363
                          9       1   17fxy2             1.154647       4.549363
                          9       1   17fxyz             1.154647       7.879729
                          9       1   17fxz2             1.154647       4.549363
                          9       1   17fy3              1.154647       2.034537
                          9       1   17fy2z             1.154647       4.549363
                          9       1   17fyz2             1.154647       4.549363
                          9       1   17fz3              1.154647       2.034537

                         10       1   20gx4              1.247848       2.045878
                         10       1   20gx3y             1.247848       5.412884
                         10       1   20gx3z             1.247848       5.412884
                         10       1   20gx2y2            1.247848       6.988003
                         10       1   20gx2yz            1.247848      12.103577
                         10       1   20gx2z2            1.247848       6.988003
                         10       1   20gxy3             1.247848       5.412884
                         10       1   20gxy2z            1.247848      12.103577
                         10       1   20gxyz2            1.247848      12.103577
                         10       1   20gxz3             1.247848       5.412884
                         10       1   20gy4              1.247848       2.045878
                         10       1   20gy3z             1.247848       5.412884
                         10       1   20gy2z2            1.247848       6.988003
                         10       1   20gyz3             1.247848       5.412884
                         10       1   20gz4              1.247848       2.045878

                         11       1    3s                1.608218       1.017815

                         12       1   21gx4              1.820317       5.778825
                         12       1   21gx3y             1.820317      15.289334
                         12       1   21gx3z             1.820317      15.289334
                         12       1   21gx2y2            1.820317      19.738445
                         12       1   21gx2yz            1.820317      34.187990
                         12       1   21gx2z2            1.820317      19.738445
                         12       1   21gxy3             1.820317      15.289334
                         12       1   21gxy2z            1.820317      34.187990
                         12       1   21gxyz2            1.820317      34.187990
                         12       1   21gxz3             1.820317      15.289334
                         12       1   21gy4              1.820317       5.778825
                         12       1   21gy3z             1.820317      15.289334
                         12       1   21gy2z2            1.820317      19.738445
                         12       1   21gyz3             1.820317      15.289334
                         12       1   21gz4              1.820317       5.778825

                         13       1   14dx2              2.087918       5.969089
                         13       1   14dxy              2.087918      10.338765
                         13       1   14dxz              2.087918      10.338765
                         13       1   14dy2              2.087918       5.969089
                         13       1   14dyz              2.087918      10.338765
                         13       1   14dz2              2.087918       5.969089

                         14       1    9px               2.537910       4.565993
                         14       1    9py               2.537910       4.565993
                         14       1    9pz               2.537910       4.565993

                         15       1   18fx3              3.628403      26.749427
                         15       1   18fx2y             3.628403      59.813538
                         15       1   18fx2z             3.628403      59.813538
                         15       1   18fxy2             3.628403      59.813538
                         15       1   18fxyz             3.628403     103.600086
                         15       1   18fxz2             3.628403      59.813538
                         15       1   18fy3              3.628403      26.749427
                         15       1   18fy2z             3.628403      59.813538
                         15       1   18fyz2             3.628403      59.813538
                         15       1   18fz3              3.628403      26.749427

                         16       1   15dx2              5.366720      31.145839
                         16       1   15dxy              5.366720      53.946175
                         16       1   15dxz              5.366720      53.946175
                         16       1   15dy2              5.366720      31.145839
                         16       1   15dyz              5.366720      53.946175
                         16       1   15dz2              5.366720      31.145839

                         17       1    4s                7.348149       3.180853

                         18       1   10px               7.396841      17.387931
                         18       1   10py               7.396841      17.387931
                         18       1   10pz               7.396841      17.387931

[...]
 cp_fm_diag_elpa_base                80  8.0    1.544    1.548    1.580    1.580
 qs_scf_new_mos                      74  5.0    0.001    0.001    1.291    1.404
 transfer_pw2rs_30                   75 12.0    0.709    0.773    1.291    1.395
 transfer_rs2pw_90                   75  9.0    0.170    0.196    1.126    1.326
 start_bse_calculation                1  7.0    0.000    0.000    1.239    1.239
 pw_scatter_p                       819 12.1    1.037    1.079    1.037    1.079
 transfer_pw2rs_90                   75 12.0    0.149    0.179    0.840    1.074
 transfer_pw2rs_10                   75 12.0    0.121    0.129    1.040    1.074
 transfer_rs2pw_30                   75  9.0    0.315    0.347    0.983    1.034
 mp_isend_dv                      13121 11.8    0.279    0.985    0.279    0.985
 rpa_num_int_RPA_matrix_operati     100  7.0    0.000    0.002    0.977    0.978
 mp_sendrecv_dv                   11850 10.0    0.904    0.970    0.904    0.970
 pw_derive                          669 11.3    0.892    0.940    0.892    0.940
 cp2k_distribution_to_z_slices       75  9.0    0.281    0.320    0.856    0.884
 pw_gather_p                        748 11.8    0.769    0.819    0.769    0.819
 pw_copy                           1120 10.6    0.780    0.818    0.780    0.818
 eigensolver_symm                    75  6.0    0.005    0.006    0.790    0.792
 calculate_vxc_atom                  75  8.0    0.027    0.165    0.717    0.717
 calc_mat_Q                         100  8.0    0.000    0.000    0.665    0.681
 contract_S_to_Q                    100  9.0    0.000    0.000    0.663    0.680
 fft_wrap_pw1pw2_90                 150 10.5    0.023    0.024    0.587    0.616
 compute_vec_Sigma_x_minus_vxc_       1  4.0    0.000    0.000    0.577    0.577
 rs_grid_zero                       378 11.1    0.535    0.571    0.535    0.571
 diagonalize_C                        1  8.0    0.000    0.000    0.567    0.568
 create_hermitian_form_of_ABBA        1  8.0    0.000    0.000    0.551    0.555
 pw_poisson_set                      76  8.9    0.001    0.001    0.513    0.542
 pw_copy_to_array                   748 11.8    0.445    0.537    0.445    0.537
 mp_sum_dm                         2104  7.6    0.427    0.520    0.427    0.520
 mp_isendrecv_dv                  23700 12.0    0.041    0.498    0.041    0.498
 cp_fm_power                          2  7.5    0.011    0.011    0.488    0.492
 gaVxcgb_GC                         222  9.0    0.018    0.489    0.018    0.489
 qs_energies_init_hamiltonians        1  3.0    0.000    0.000    0.488    0.488
 pw_copy_from_array                 819 12.1    0.382    0.458    0.382    0.458
 build_core_hamiltonian_matrix        1  4.0    0.000    0.000    0.437    0.437
 overlap_condnum                      1  5.0    0.000    0.000    0.436    0.437
 mp_sum_dv                        11047 10.2    0.398    0.431    0.398    0.431
 cp_fm_cholesky_invert              101  8.0    0.411    0.426    0.411    0.426
 mp_isend_dm3                      2718 11.5    0.118    0.417    0.118    0.417
 arnoldi_conjugate_gradient           7  6.0    0.007    0.009    0.415    0.415
 pw_axpy                            820  9.2    0.379    0.399    0.379    0.399
 update_ks_atom                      75  8.0    0.010    0.015    0.340    0.392
 mp2_ri_gpw_compute_in                1  5.0    0.000    0.000    0.389    0.390
 pw_integral_ab_c1d_c1d_gs           75  9.0    0.329    0.336    0.364    0.388
 pw_poisson_rebuild                  75  9.0    0.000    0.000    0.366    0.378
 ps_wavelet_create                    1 10.0    0.000    0.000    0.366    0.378
 RS_z_slice_distribution              1 11.0    0.254    0.282    0.366    0.378
 mp_bcast_dm                       1350  9.0    0.330    0.377    0.330    0.377
 calc_screening_functions             1 10.0    0.136    0.139    0.353    0.362
 calculate_dm_sparse                 74  6.0    0.000    0.000    0.278    0.361
 cp_dbcsr_plus_fm_fm_t               74  7.0    0.001    0.001    0.277    0.360
 powell_optimize                 240939 11.0    0.347    0.356    0.347    0.356
 transfer_rs2pw_10                   75  9.0    0.076    0.080    0.313    0.344
 calculate_rho_atom                 225  9.0    0.103    0.344    0.103    0.344
 cp_fm_cholesky_decompose           102  9.0    0.323    0.343    0.323    0.343
 rs_gather_matrices                  75 10.0    0.001    0.003    0.277    0.326
 copy_dbcsr_to_fm                   133  6.8    0.002    0.002    0.250    0.317
 mp2_ri_gpw_compute_in_loop           1  6.0    0.000    0.000    0.308    0.309
 compute_Erpa_by_freq_int           100  8.0    0.001    0.001    0.291    0.292
 dbcsr_multiply_generic             175  8.1    0.004    0.004    0.186    0.272
 mp2_main_alloc_hfx                   1  4.0    0.133    0.266    0.133    0.266
 dbcsr_sym_matrix_vector_mult      2205  7.0    0.016    0.017    0.240    0.264
 grid_integrate_task_list            75 10.0    0.039    0.263    0.039    0.263
 integrate_four_center_main          75 10.0    0.016    0.027    0.239    0.258
 mp_sum_i                            19  9.5    0.134    0.253    0.134    0.253
 restraint_control                    1  2.0    0.000    0.000    0.133    0.253
 cp_fm_to_fm_submat_general         112 10.1    0.188    0.249    0.188    0.249
 contract_B_L                         4  7.0    0.001    0.001    0.209    0.247
 integrate_four_center_bin         9508 11.0    0.224    0.236    0.224    0.236
 dbcsr_complete_redistribute        285  8.5    0.009    0.011    0.230    0.233
 init_scf_run                         1  3.0    0.000    0.000    0.215    0.215
 calc_pair_dist_radii                 1 10.0    0.080    0.081    0.210    0.213
 dbcsr_desymmetrize_deep            135  7.8    0.002    0.003    0.143    0.210
 pw_zero                            446 10.3    0.199    0.207    0.199    0.207
 scf_env_initial_rho_setup            1  4.0    0.000    0.000    0.206    0.206
 scale_and_distribute               150 10.0    0.066    0.189    0.066    0.189
 fft_wrap_pw1pw2_30                 150 10.5    0.004    0.005    0.185    0.189
 multiply_cannon                    175  9.1    0.007    0.008    0.093    0.178
 qs_init_subsys                       1  2.0    0.001    0.001    0.167    0.168
 qs_env_setup                         1  3.0    0.000    0.000    0.164    0.165
 qs_env_rebuild_pw_env                2  3.5    0.000    0.000    0.164    0.165
 pw_env_rebuild                       1  5.0    0.000    0.000    0.164    0.165
 multiply_cannon_loop               175 10.1    0.005    0.005    0.075    0.159
 pw_grid_setup                        4  6.0    0.000    0.000    0.157    0.158
 pw_grid_setup_internal               4  7.0    0.002    0.003    0.157    0.158
 mp_comm_split_direct                48 14.5    0.135    0.150    0.135    0.150
 mp_alltoall_i22                    420  9.3    0.081    0.149    0.081    0.149
 self_consistency_check              74  5.0    0.000    0.000    0.098    0.147
 cp_sm_mix                           74  6.0    0.000    0.000    0.098    0.147
 mp_max_d                            76  6.9    0.098    0.147    0.098    0.147
 mp2_main_free_hfx                    1  4.0    0.015    0.143    0.015    0.143
 mp_cart_create                     505 10.1    0.099    0.136    0.099    0.136
 multiply_cannon_metrocomm3        1676 11.1    0.002    0.002    0.043    0.134
 copy_fm_to_dbcsr                   152  8.1    0.000    0.000    0.127    0.130
 dbt_total                            8  8.0    0.000    0.000    0.128    0.129
 dbt_contract                         4  9.0    0.000    0.000    0.120    0.121
 mp_max_i                           591  2.9    0.094    0.121    0.094    0.121
 Vh_1c_gg_integrals                  75  8.0    0.006    0.054    0.104    0.117
 pw_grid_sort                         4  8.0    0.082    0.085    0.111    0.115
 dbcsr_add_d                       3360  7.0    0.002    0.002    0.019    0.114
 mp2_eri_3c_integrate                 1  7.0    0.001    0.001    0.059    0.113
 dbt_pgrid_create_expert             84 10.8    0.000    0.000    0.075    0.112
 dbcsr_add_anytype                 3360  8.0    0.002    0.012    0.018    0.112
 integrate_set_3c                  2064  8.0    0.050    0.099    0.058    0.112
 dbcsr_rep_row_to_rep_col_vec      2205  8.0    0.006    0.006    0.070    0.109
 mp_alltoall_i11v                   990  9.4    0.107    0.107    0.107    0.107
 calculate_rho_atom_coeff            75  6.0    0.012    0.016    0.105    0.105
 dbcsr_col_vec_to_rep_row          2205  8.0    0.007    0.008    0.085    0.101
 create_qs_kind_set                   1  2.0    0.000    0.000    0.096    0.096
 read_qs_kind                         4  3.0    0.039    0.048    0.096    0.096
 dbt_tas_multiply                     8 11.5    0.000    0.000    0.092    0.092
 dbt_tas_total                        8 12.5    0.001    0.004    0.091    0.091
 fft_wrap_pw1pw2_10                 150 10.5    0.001    0.001    0.079    0.082
 cp_fm_uplo_to_full                 184  8.4    0.067    0.081    0.067    0.081
 multiply_cannon_metrocomm4        1501 11.1    0.002    0.003    0.006    0.081
 get_2c_integrals                     1  6.0    0.000    0.000    0.077    0.080
 multiply_cannon_metrocomm1        1676 11.1    0.001    0.001    0.009    0.079
 mp_bcast_dv                       2205  9.0    0.047    0.077    0.047    0.077
 dbcsr_finalize                    5302 10.7    0.006    0.021    0.026    0.075
 make_m2s                           350  9.1    0.003    0.003    0.063    0.067
 pw_scale                           297  9.5    0.043    0.061    0.043    0.061
 compute_2c_integrals                 1  7.0    0.000    0.000    0.030    0.061
 parser_read_line                 16670  4.0    0.003    0.003    0.057    0.059
 parser_read_line_low                29  5.0    0.001    0.015    0.054    0.056
 vxc_of_r_new                       444  9.0    0.000    0.009    0.002    0.056
 broadcast_input_information         29  6.0    0.005    0.005    0.053    0.055
 cholesky_decomp                      1  7.0    0.000    0.000    0.034    0.054
 integrate_four_center_load          75 10.0    0.000    0.000    0.045    0.052
 hfx_load_balance                     1 11.0    0.000    0.000    0.045    0.052
 hybrid_alltoall_any                485 11.1    0.003    0.006    0.046    0.051
 qs_env_update_s_mstruct              1  4.0    0.000    0.000    0.050    0.050
 mp_rank_compare                   1567 12.9    0.045    0.050    0.045    0.050
 mp_irecv_dm3                      2718 11.5    0.013    0.049    0.013    0.049
 mp_sum_l                          1149  6.6    0.038    0.048    0.038    0.048
 create_A                             1  8.0    0.001    0.002    0.046    0.047
 calculate_rho_core                   1  5.0    0.003    0.004    0.047    0.047
 write_mo_set_to_restart             74  5.0    0.001    0.040    0.042    0.046
 integrate_four_center_dist_KS       75 10.0    0.006    0.007    0.044    0.046
 dbt_tas_dbm                          8 13.5    0.000    0.000    0.044    0.044
 dbcsr_iterator_start             28918  8.9    0.023    0.033    0.027    0.042
 scf_post_calculation_gpw             1  3.0    0.000    0.000    0.042    0.042
 write_available_results              1  4.0    0.000    0.000    0.042    0.042
 write_mo_free_results                1  5.0    0.004    0.005    0.042    0.042
 cp_fm_symm                          75  7.0    0.038    0.041    0.038    0.041
 create_B                             1  8.0    0.000    0.000    0.036    0.041
 write_mo_set_low                     4  6.0    0.000    0.000    0.040    0.041
 cp_fm_write_unformatted              4  7.0    0.040    0.041    0.040    0.041
 rs_scatter_matrices                 75  7.0    0.001    0.001    0.040    0.041
 integrate_four_center_getP          75 10.0    0.006    0.006    0.037    0.040
 mp_bcast_i_src                     116  7.0    0.033    0.039    0.033    0.039
 fm_general_add_bse                   5 10.2    0.000    0.000    0.036    0.038
 create_integ_mat                     4  6.0    0.002    0.002    0.037    0.038
 dbm_multiply                         8 15.5    0.032    0.038    0.032    0.038
 make_images                        350 10.1    0.006    0.007    0.033    0.038
 mp_irecv_dv                      13086 11.8    0.009    0.037    0.009    0.037
 dbt_tas_estimate_result_nze          4 12.0    0.000    0.003    0.037    0.037
 array2fm                             4  7.0    0.000    0.000    0.030    0.036
 postprocess_bse                      1  9.0    0.000    0.000    0.035    0.036
 dbcsr_merge_all                   4253 11.4    0.010    0.025    0.014    0.033
 sort_shells                          4  9.0    0.029    0.032    0.029    0.032
 Q_trace_and_add_unit_matrix        100  8.0    0.000    0.000    0.021    0.031
 hfx_load_balance_redist              1 12.0    0.003    0.003    0.030    0.030
 mp_maxloc_dv                      1523  1.0    0.026    0.030    0.026    0.030
 dbcsr_copy                        9738  7.6    0.016    0.018    0.027    0.029
 mixing_init                          1  5.0    0.026    0.028    0.028    0.028
 dbcsr_work_create                 5034 10.6    0.005    0.018    0.008    0.027
 dbt_copy                            12 10.1    0.000    0.000    0.022    0.027
 mp_isendrecv_lv                    158 13.0    0.001    0.027    0.001    0.027
 dbt_tas_mm_1N                        6 14.5    0.000    0.000    0.022    0.026
 mult_B_with_W                        1  8.0    0.000    0.000    0.024    0.025
 calculate_rho0_atom                300  9.0    0.024    0.025    0.024    0.025
 xc_pw_smooth                        74 10.0    0.000    0.000    0.022    0.024
 dbcsr_iterator_stop              28918  8.9    0.013    0.019    0.016    0.022
 offload_free_buffer                 83  8.4    0.015    0.021    0.015    0.021
 dbt_tas_distribution_new            94 11.8    0.012    0.012    0.021    0.021
 dbt_distribution_new_expert         76 10.1    0.000    0.001    0.021    0.021
 dbt_reshape                          8 11.6    0.002    0.005    0.016    0.021
 dbcsr_create_new                 12998  9.1    0.014    0.015    0.019    0.021
 dbt_remap                            8 10.0    0.001    0.001    0.020    0.021
 dbcsr_work_destroy_all            5034 11.5    0.004    0.013    0.006    0.021
 hirshfeld_integration                1  6.0    0.001    0.005    0.020    0.020
 cp_fm_syrk                           3  7.0    0.017    0.019    0.017    0.019
 mp_cart_sub                        270  8.8    0.019    0.019    0.019    0.019
 dbcsr_crop_matrix                  444 10.0    0.001    0.002    0.018    0.019
 hfx_load_balance_range               1 12.0    0.000    0.000    0.011    0.019
 get_multipoles_mo                    1 10.0    0.000    0.000    0.017    0.018
 mp_bcast_am_src                     29  7.0    0.014    0.016    0.015    0.017
 pw_grid_remap                        4  8.0    0.003    0.004    0.013    0.017
 mp_bcast_b_src                     155  7.5    0.011    0.017    0.011    0.017
 calculate_hirshfeld_normalizat       1  6.0    0.001    0.005    0.016    0.017
 array2fm_info                        4  8.0    0.014    0.015    0.014    0.016
 make_images_sizes                  350 11.1    0.000    0.000    0.012    0.015
 mp_alltoall_i44                    350 12.1    0.012    0.015    0.012    0.015
 pw_grid_assign                       4  8.0    0.013    0.014    0.015    0.015
 mp_sum_im3                           4  9.0    0.011    0.015    0.011    0.015
 dbcsr_copy_submatrix               444 11.0    0.002    0.002    0.014    0.015
 mp_bcast_av                        762  1.0    0.004    0.006    0.011    0.014
 fm_general_add_bse_5_comm_buff       5 11.2    0.000    0.000    0.011    0.014
 communicate_buffer                   5 12.2    0.000    0.000    0.011    0.014
 truncate_BSE_matrices                1  8.0    0.000    0.000    0.014    0.014
 dbcsr_data_release               82270 10.5    0.008    0.014    0.008    0.014
 create_fast_col_vec_access        4410  8.0    0.008    0.009    0.013    0.014
 dbt_communicate_buffer               8 12.6    0.000    0.000    0.012    0.014
 dbcsr_data_new                   49255 10.9    0.007    0.014    0.007    0.014
 cp_fm_redistribute_start            80  8.0    0.000    0.000    0.008    0.014
 dbt_tas_create_split                44 13.2    0.000    0.000    0.013    0.014
 dbt_tas_create_split_rows_or_c      44 14.2    0.000    0.000    0.013    0.014
 abc_contract                      2064  9.0    0.008    0.013    0.008    0.013
 create_fast_row_vec_access        4410  8.0    0.008    0.008    0.012    0.013
 mp_waitall_2                        48 15.8    0.009    0.013    0.009    0.013
 ao_to_mo_and_store_B_mult_gw_1      12  7.0    0.000    0.000    0.008    0.012
 make_images_data                   350 11.1    0.002    0.002    0.007    0.012
 mp_sum_im                         4017 13.0    0.010    0.012    0.010    0.012
 get_oscillator_strengths             1 10.0    0.000    0.000    0.011    0.011
 dbt_tas_mm_2                         2 14.5    0.000    0.000    0.011    0.011
 mp_sum_iv                          219  9.9    0.009    0.011    0.009    0.011
 dbt_split_blocks_generic            20  8.8    0.002    0.002    0.011    0.011
 ao_to_mo_and_store_B_mult_bse_      12  7.0    0.000    0.000    0.008    0.011
 dbcsr_sym_matrix_vector_mult_l    2205  8.0    0.004    0.005    0.010    0.011
 invert_mat                           1  7.0    0.000    0.000    0.007    0.011
 cp_fm_triangular_invert              1  8.0    0.007    0.010    0.007    0.010
 dbcsr_scale_anytype               3361  9.0    0.003    0.003    0.009    0.010
 array2fm_buffer_send                 4  8.0    0.009    0.010    0.009    0.010
 array2fm_fill                        4  8.0    0.002    0.003    0.005    0.010
 multiply_cannon_multrec           1676 11.1    0.008    0.010    0.008    0.010
 dbt_create_new                      40  9.5    0.000    0.000    0.010    0.010
 fm_general_add_bse_1_setup           5 11.2    0.009    0.010    0.009    0.010
 dbt_tas_replicate                    8 13.5    0.003    0.003    0.009    0.010
 hfx_create                           1  2.0    0.009    0.010    0.009    0.010
 ao_to_mo_and_store_B_mult_1         12  7.0    0.000    0.000    0.007    0.010
 dbcsr_iterator_seek              28918  9.9    0.004    0.010    0.004    0.010
 external_control                    75  5.0    0.000    0.006    0.009    0.009
 reshape_mm_small                     8 13.5    0.001    0.001    0.009    0.009
 ao_to_mo_and_store_B_mult_bse_      12  7.0    0.000    0.000    0.006    0.009
 evaluate_core_matrix_traces         74  6.0    0.000    0.000    0.008    0.009
 dbcsr_dot                          149  8.0    0.001    0.001    0.008    0.009
 cp_dbcsr_sm_fm_multiply              3 11.0    0.000    0.000    0.009    0.009
 -------------------------------------------------------------------------------

 The number of warnings for this run is : 1
 
 -------------------------------------------------------------------------------
  **** **** ******  **  PROGRAM ENDED AT                 2025-06-03 22:59:49.037
 ***** ** ***  *** **   PROGRAM RAN ON                                  n2cn0453
 **    ****   ******    PROGRAM RAN BY                                  metdyn02
 ***** **    ** ** **   PROGRAM PROCESS ID                               2124450
  **** **  *******  **  PROGRAM STOPPED IN /scratch/hpc-prf-metdyn/metdyn02_Remi
                                           /10_MOL/05_MOL/aUKBqsEOTmq69kFe5R_nOg
                                           /5k_set_final_qzvp/ABEGEU/SZVSR/GW+BS
                                           E/RILIM
