 DBCSR| CPU Multiplication driver                                           BLAS (U)
 DBCSR| Multrec recursion limit                                              512 (U)
 DBCSR| Multiplication stack size                                           1000 (D)
 DBCSR| Maximum elements for images                                    UNLIMITED (U)
 DBCSR| Multiplicative factor virtual images                                   1 (U)
 DBCSR| Use multiplication densification                                       T (D)
 DBCSR| Multiplication size stacks                                             3 (U)
 DBCSR| Use memory pool for CPU allocation                                     F (U)
 DBCSR| Number of 3D layers                                               SINGLE (U)
 DBCSR| Use MPI memory allocation                                              F (U)
 DBCSR| Use RMA algorithm                                                      F (U)
 DBCSR| Use Communication thread                                               T (U)
 DBCSR| Communication thread load                                             75 (D)
 DBCSR| MPI: My process id                                                     0
 DBCSR| MPI: Number of processes                                             216
 DBCSR| OMP: Current number of threads                                         4
 DBCSR| OMP: Max number of threads                                             4
 DBCSR| Split modifier for TAS multiplication algorithm                  1.0E+00 (U)


  **** **** ******  **  PROGRAM STARTED AT               2025-04-02 09:04:51.784
 ***** ** ***  *** **   PROGRAM STARTED ON                          i08r02c03s03
 **    ****   ******    PROGRAM STARTED BY                               di38fab
 ***** **    ** ** **   PROGRAM PROCESS ID                               1591010
  **** **  *******  **  PROGRAM STARTED IN /hppfs/scratch/04/di38fab/07_MOL_non_
                                           aug/05_MOL_non_aug/05_MOL/aUKBqsEOTmq
                                           69kFe5R_nOg/5k_set_final_qzvp/CIKTAS/
                                           cc-pVTZ/TDDFT

 CP2K| version string:                 CP2K version 2025.1 (Development Version)
 CP2K| source code revision number:                                  git:d2e611a
 CP2K| cp2kflags: omp libint fftw3 libxc parallel scalapack max_contr=4         
 CP2K| is freely available from                            https://www.cp2k.org/
 CP2K| Program compiled at                       Thu 06 Mar 2025 05:09:20 PM CET
 CP2K| Program compiled on                                               login02
 CP2K| Program compiled for                                        Supermuc-foss
 CP2K| Data directory path                  /hppfs/work/pn36zo/di38fab/cp2k/data
 CP2K| Input file name                                                    GW.inp

 GLOBAL| Force Environment number                                              1
 GLOBAL| Basis set file name            /hppfs/scratch/04/di38fab/04_TMD/BASIS_A
 GLOBAL| Potential file name            /hppfs/work/pn36zo/di38fab/cp2k/data/ALL
 GLOBAL| MM Potential file name                                     MM_POTENTIAL
 GLOBAL| Coordinate file name                                      __STD_INPUT__
 GLOBAL| Method name                                                        CP2K
 GLOBAL| Project name                                                       MoS2
 GLOBAL| Run type                                                         ENERGY
 GLOBAL| FFT library                                                       FFTW3
 GLOBAL| Diagonalization library                                       ScaLAPACK
 GLOBAL| DGEMM library                                                      BLAS
 GLOBAL| Orthonormality check for eigenvectors                          DISABLED
 GLOBAL| Matrix multiplication library                                 ScaLAPACK
 GLOBAL| All-to-all communication in single precision                          F
 GLOBAL| FFTs using library dependent lengths                                  F
 GLOBAL| Grid backend                                                       AUTO
 GLOBAL| Global print level                                               MEDIUM
 GLOBAL| MPI I/O enabled                                                       T
 GLOBAL| Total number of message passing processes                           216
 GLOBAL| Number of threads for this process                                    4
 GLOBAL| This output is from process                                           0
 GLOBAL| OpenMP stack size per thread (OMP_STACKSIZE)                    default
 GLOBAL| CPU model name             Intel(R) Xeon(R) Platinum 8174 CPU @ 3.10GHz

 MEMORY| system memory details [Kb]
 MEMORY|                        rank 0           min           max       average
 MEMORY| MemTotal             98436660      98436660      98436708      98436665
 MEMORY| MemFree              84052408      83589204      84092720      83900676
 MEMORY| Buffers                     0             0             0             0
 MEMORY| Cached                2413532       2388092       2420968       2408947
 MEMORY| Slab                  1230532       1217484       1239052       1229322
 MEMORY| SReclaimable           265412        265264        271192        268647
 MEMORY| MemLikelyFree        86731352      86246548      86761044      86578270


 *** Fundamental physical constants (SI units) ***

 *** Literature: B. J. Mohr and B. N. Taylor,
 ***             CODATA recommended values of the fundamental physical
 ***             constants: 2006, Web Version 5.1
 ***             http://physics.nist.gov/constants

 Speed of light in vacuum [m/s]                             2.99792458000000E+08
 Magnetic constant or permeability of vacuum [N/A**2]       1.25663706143592E-06
 Electric constant or permittivity of vacuum [F/m]          8.85418781762039E-12
 Planck constant (h) [J*s]                                  6.62606896000000E-34
 Planck constant (h-bar) [J*s]                              1.05457162825177E-34
 Elementary charge [C]                                      1.60217648700000E-19
 Electron mass [kg]                                         9.10938215000000E-31
 Electron g factor [ ]                                     -2.00231930436220E+00
 Proton mass [kg]                                           1.67262163700000E-27
 Fine-structure constant                                    7.29735253760000E-03
 Rydberg constant [1/m]                                     1.09737315685270E+07
 Avogadro constant [1/mol]                                  6.02214179000000E+23
 Boltzmann constant [J/K]                                   1.38065040000000E-23
 Atomic mass unit [kg]                                      1.66053878200000E-27
 Bohr radius [m]                                            5.29177208590000E-11

 *** Conversion factors ***

 [u] -> [a.u.]                                              1.82288848426455E+03
 [Angstrom] -> [Bohr] = [a.u.]                              1.88972613288564E+00
 [a.u.] = [Bohr] -> [Angstrom]                              5.29177208590000E-01
 [a.u.] -> [s]                                              2.41888432650478E-17
 [a.u.] -> [fs]                                             2.41888432650478E-02
 [a.u.] -> [J]                                              4.35974393937059E-18
 [a.u.] -> [N]                                              8.23872205491840E-08
 [a.u.] -> [K]                                              3.15774647902944E+05
 [a.u.] -> [kJ/mol]                                         2.62549961709828E+03
 [a.u.] -> [kcal/mol]                                       6.27509468713739E+02
 [a.u.] -> [Pa]                                             2.94210107994716E+13
 [a.u.] -> [bar]                                            2.94210107994716E+08
 [a.u.] -> [atm]                                            2.90362800883016E+08
 [a.u.] -> [eV]                                             2.72113838565563E+01
 [a.u.] -> [Hz]                                             6.57968392072181E+15
 [a.u.] -> [1/cm] (wave numbers)                            2.19474631370540E+05
 [a.u./Bohr**2] -> [1/cm]                                   5.14048714338585E+03
 

 CELL_TOP| Volume [angstrom^3]:                                     27000.000000
 CELL_TOP| Vector a [angstrom    30.000     0.000     0.000   |a| =    30.000000
 CELL_TOP| Vector b [angstrom     0.000    30.000     0.000   |b| =    30.000000
 CELL_TOP| Vector c [angstrom     0.000     0.000    30.000   |c| =    30.000000
 CELL_TOP| Angle (b,c), alpha [degree]:                                90.000000
 CELL_TOP| Angle (a,c), beta  [degree]:                                90.000000
 CELL_TOP| Angle (a,b), gamma [degree]:                                90.000000
 CELL_TOP| Numerically orthorhombic:                                         YES
 CELL_TOP| Periodicity                                                      NONE

 GENERATE|  Preliminary Number of Bonds generated:                             0
 GENERATE|  Achieved consistency in connectivity generation.

 CELL| Volume [angstrom^3]:                                         27000.000000
 CELL| Vector a [angstrom]:      30.000     0.000     0.000   |a| =    30.000000
 CELL| Vector b [angstrom]:       0.000    30.000     0.000   |b| =    30.000000
 CELL| Vector c [angstrom]:       0.000     0.000    30.000   |c| =    30.000000
 CELL| Angle (b,c), alpha [degree]:                                    90.000000
 CELL| Angle (a,c), beta  [degree]:                                    90.000000
 CELL| Angle (a,b), gamma [degree]:                                    90.000000
 CELL| Numerically orthorhombic:                                             YES
 CELL| Periodicity                                                          NONE

 CELL_REF| Volume [angstrom^3]:                                     27000.000000
 CELL_REF| Vector a [angstrom    30.000     0.000     0.000   |a| =    30.000000
 CELL_REF| Vector b [angstrom     0.000    30.000     0.000   |b| =    30.000000
 CELL_REF| Vector c [angstrom     0.000     0.000    30.000   |c| =    30.000000
 CELL_REF| Angle (b,c), alpha [degree]:                                90.000000
 CELL_REF| Angle (a,c), beta  [degree]:                                90.000000
 CELL_REF| Angle (a,b), gamma [degree]:                                90.000000
 CELL_REF| Numerically orthorhombic:                                         YES
 CELL_REF| Periodicity                                                      NONE

 *******************************************************************************
 *******************************************************************************
 **                                                                           **
 **     #####                         ##              ##                      **
 **    ##   ##            ##          ##              ##                      **
 **   ##     ##                       ##            ######                    **
 **   ##     ##  ##   ##  ##   #####  ##  ##   ####   ##    #####    #####    **
 **   ##     ##  ##   ##  ##  ##      ## ##   ##      ##   ##   ##  ##   ##   **
 **   ##  ## ##  ##   ##  ##  ##      ####     ###    ##   ######   ######    **
 **    ##  ###   ##   ##  ##  ##      ## ##      ##   ##   ##       ##        **
 **     #######   #####   ##   #####  ##  ##  ####    ##    #####   ##        **
 **           ##                                                    ##        **
 **                                                                           **
 **                                                ... make the atoms dance   **
 **                                                                           **
 **            Copyright (C) by CP2K developers group (2000-2025)             **
 **                      J. Chem. Phys. 152, 194103 (2020)                    **
 **                                                                           **
 *******************************************************************************

 DFT| Spin restricted Kohn-Sham (RKS) calculation                            RKS
 DFT| Multiplicity                                                             1
 DFT| Number of spin states                                                    1
 DFT| Charge                                                                   0
 DFT| Self-interaction correction (SIC)                                       NO
 DFT| Cutoffs: density                                              1.000000E-10
 DFT|          gradient                                             1.000000E-10
 DFT|          tau                                                  1.000000E-10
 DFT|          cutoff_smoothing_range                               0.000000E+00
 DFT| XC density smoothing                                                  NONE
 DFT| XC derivatives                                                          PW

 FUNCTIONAL| PBE:
 FUNCTIONAL| J.P.Perdew, K.Burke, M.Ernzerhof, Phys. Rev. Letter, vol. 77, n 18,
 FUNCTIONAL|  pp. 3865-3868, (1996)sx=0.750sc=1.000{spin unpolarized}           


 QS| Method:                                                                GAPW
 QS| Density plane wave grid type                        NON-SPHERICAL FULLSPACE
 QS| Number of grid levels:                                                    4
 QS| Density cutoff [a.u.]:                                                250.0
 QS| Multi grid cutoff [a.u.]: 1) grid level                               250.0
 QS|                           2) grid level                                83.3
 QS|                           3) grid level                                27.8
 QS|                           4) grid level                                 9.3
 QS| Grid level progression factor:                                          3.0
 QS| Relative density cutoff [a.u.]:                                        50.0
 QS| Interaction thresholds: eps_pgf_orb:                                1.0E-12
 QS|                         eps_filter_matrix:                          0.0E+00
 QS|                         eps_core_charge:                            1.0E-14
 QS|                         eps_rho_gspace:                             1.0E-12
 QS|                         eps_rho_rspace:                             1.0E-12
 QS|                         eps_gvg_rspace:                             1.0E-06
 QS|                         eps_ppl:                                    1.0E-02
 QS|                         eps_ppnl:                                   1.0E-08
 QS| GAPW|      One center basis from orbital basis primitives
 QS| GAPW|                   eps_fit:                                    1.0E-04
 QS| GAPW|                   eps_iso:                                    1.0E-12
 QS| GAPW|                   eps_svd:                                    1.0E-08
 QS| GAPW|                   eps_cpc:                                    1.0E-12
 QS| GAPW|   atom-r-grid: quadrature:                                     GC_LOG
 QS| GAPW|      atom-s-grid:  max l :                                          6
 QS| GAPW|      max_l_rho0 :                                                   2


 ATOMIC KIND INFORMATION

  1. Atomic kind: Cl                                    Number of atoms:       4

     Orbital Basis Set                                                   cc-pVTZ

       Number of orbital shell sets:                                           4
       Number of orbital shells:                                              12
       Number of primitive Cartesian functions:                               27
       Number of Cartesian basis functions:                                   39
       Number of spherical basis functions:                                   34
       Norm type:                                                              2

       Normalised Cartesian orbitals:

                        Set   Shell   Orbital            Exponent    Coefficient

                          1       1    1px             663.300000      11.537157
                                                       156.800000      15.197025
                                                        49.980000      16.765879
                                                        18.420000      13.925990
                                                         7.240000       7.396431
                                                         2.922000       1.907755
                                                         1.022000       0.085758
                                                         0.381800      -0.001961
                                                         0.130100       0.000253
                          1       1    1py             663.300000      11.537157
                                                       156.800000      15.197025
                                                        49.980000      16.765879
                                                        18.420000      13.925990
                                                         7.240000       7.396431
                                                         2.922000       1.907755
                                                         1.022000       0.085758
                                                         0.381800      -0.001961
                                                         0.130100       0.000253
                          1       1    1pz             663.300000      11.537157
                                                       156.800000      15.197025
                                                        49.980000      16.765879
                                                        18.420000      13.925990
                                                         7.240000       7.396431
                                                         2.922000       1.907755
                                                         1.022000       0.085758
                                                         0.381800      -0.001961
                                                         0.130100       0.000253

                          1       2    2px             663.300000       0.000000
                                                       156.800000       0.000000
                                                        49.980000       0.000000
                                                        18.420000       0.000000
                                                         7.240000       0.000000
                                                         2.922000       0.000000
                                                         1.022000       1.464717
                                                         0.381800       0.000000
                                                         0.130100       0.000000
                          1       2    2py             663.300000       0.000000
                                                       156.800000       0.000000
                                                        49.980000       0.000000
                                                        18.420000       0.000000
                                                         7.240000       0.000000
                                                         2.922000       0.000000
                                                         1.022000       1.464717
                                                         0.381800       0.000000
                                                         0.130100       0.000000
                          1       2    2pz             663.300000       0.000000
                                                       156.800000       0.000000
                                                        49.980000       0.000000
                                                        18.420000       0.000000
                                                         7.240000       0.000000
                                                         2.922000       0.000000
                                                         1.022000       1.464717
                                                         0.381800       0.000000
                                                         0.130100       0.000000

                          1       3    3px             663.300000      -3.129115
                                                       156.800000      -4.108299
                                                        49.980000      -4.677601
                                                        18.420000      -3.960800
                                                         7.240000      -2.268899
                                                         2.922000      -0.516096
                                                         1.022000       0.384179
                                                         0.381800       0.241561
                                                         0.130100       0.038007
                          1       3    3py             663.300000      -3.129115
                                                       156.800000      -4.108299
                                                        49.980000      -4.677601
                                                        18.420000      -3.960800
                                                         7.240000      -2.268899
                                                         2.922000      -0.516096
                                                         1.022000       0.384179
                                                         0.381800       0.241561
                                                         0.130100       0.038007
                          1       3    3pz             663.300000      -3.129115
                                                       156.800000      -4.108299
                                                        49.980000      -4.677601
                                                        18.420000      -3.960800
                                                         7.240000      -2.268899
                                                         2.922000      -0.516096
                                                         1.022000       0.384179
                                                         0.381800       0.241561
                                                         0.130100       0.038007

                          1       4    4px             663.300000       0.000000
                                                       156.800000       0.000000
                                                        49.980000       0.000000
                                                        18.420000       0.000000
                                                         7.240000       0.000000
                                                         2.922000       0.000000
                                                         1.022000       0.000000
                                                         0.381800       0.000000
                                                         0.130100       0.111375
                          1       4    4py             663.300000       0.000000
                                                       156.800000       0.000000
                                                        49.980000       0.000000
                                                        18.420000       0.000000
                                                         7.240000       0.000000
                                                         2.922000       0.000000
                                                         1.022000       0.000000
                                                         0.381800       0.000000
                                                         0.130100       0.111375
                          1       4    4pz             663.300000       0.000000
                                                       156.800000       0.000000
                                                        49.980000       0.000000
                                                        18.420000       0.000000
                                                         7.240000       0.000000
                                                         2.922000       0.000000
                                                         1.022000       0.000000
                                                         0.381800       0.000000
                                                         0.130100       0.111375

                          2       1    1s           456100.000000       0.616631
                                                     68330.000000       1.153720
                                                     15550.000000       1.993372
                                                      4405.000000       3.231489
                                                      1439.000000       4.907274
                                                       520.400000       6.820534
                                                       203.100000       8.108631
                                                        83.960000       7.222545
                                                        36.200000       3.585487
                                                        15.830000       0.577679
                                                         6.334000       0.008869
                                                         2.694000       0.001585
                                                         0.976800      -0.000265
                                                         0.431300       0.000059
                                                         0.162500      -0.000009

                          2       2    2s           456100.000000      -0.172998
                                                     68330.000000      -0.323135
                                                     15550.000000      -0.560816
                                                      4405.000000      -0.909977
                                                      1439.000000      -1.408536
                                                       520.400000      -2.016191
                                                       203.100000      -2.631759
                                                        83.960000      -2.804578
                                                        36.200000      -2.096479
                                                        15.830000      -0.110669
                                                         6.334000       1.422047
                                                         2.694000       0.844859
                                                         0.976800       0.055344
                                                         0.431300      -0.003168
                                                         0.162500       0.000424

                          2       3    3s           456100.000000       0.000000
                                                     68330.000000       0.000000
                                                     15550.000000       0.000000
                                                      4405.000000       0.000000
                                                      1439.000000       0.000000
                                                       520.400000       0.000000
                                                       203.100000       0.000000
                                                        83.960000       0.000000
                                                        36.200000       0.000000
                                                        15.830000       0.000000
                                                         6.334000       0.000000
                                                         2.694000       0.000000
                                                         0.976800       0.700268
                                                         0.431300       0.000000
                                                         0.162500       0.000000

                          2       4    4s           456100.000000       0.052354
                                                     68330.000000       0.097711
                                                     15550.000000       0.169813
                                                      4405.000000       0.275217
                                                      1439.000000       0.427455
                                                       520.400000       0.612341
                                                       203.100000       0.808540
                                                        83.960000       0.874271
                                                        36.200000       0.685440
                                                        15.830000       0.034107
                                                         6.334000      -0.587595
                                                         2.694000      -0.608270
                                                         0.976800       0.053189
                                                         0.431300       0.275251
                                                         0.162500       0.071947

                          2       5    5s           456100.000000       0.000000
                                                     68330.000000       0.000000
                                                     15550.000000       0.000000
                                                      4405.000000       0.000000
                                                      1439.000000       0.000000
                                                       520.400000       0.000000
                                                       203.100000       0.000000
                                                        83.960000       0.000000
                                                        36.200000       0.000000
                                                        15.830000       0.000000
                                                         6.334000       0.000000
                                                         2.694000       0.000000
                                                         0.976800       0.000000
                                                         0.431300       0.000000
                                                         0.162500       0.182411

                          3       1    1dx2              1.046000       1.780696
                                                         0.344000       0.000000
                          3       1    1dxy              1.046000       3.084257
                                                         0.344000       0.000000
                          3       1    1dxz              1.046000       3.084257
                                                         0.344000       0.000000
                          3       1    1dy2              1.046000       1.780696
                                                         0.344000       0.000000
                          3       1    1dyz              1.046000       3.084257
                                                         0.344000       0.000000
                          3       1    1dz2              1.046000       1.780696
                                                         0.344000       0.000000

                          3       2    2dx2              1.046000       0.000000
                                                         0.344000       0.254324
                          3       2    2dxy              1.046000       0.000000
                                                         0.344000       0.440501
                          3       2    2dxz              1.046000       0.000000
                                                         0.344000       0.440501
                          3       2    2dy2              1.046000       0.000000
                                                         0.344000       0.254324
                          3       2    2dyz              1.046000       0.000000
                                                         0.344000       0.440501
                          3       2    2dz2              1.046000       0.000000
                                                         0.344000       0.254324

                          4       1    1fx3              0.706000       0.672613
                          4       1    1fx2y             0.706000       1.504008
                          4       1    1fx2z             0.706000       1.504008
                          4       1    1fxy2             0.706000       1.504008
                          4       1    1fxyz             0.706000       2.605018
                          4       1    1fxz2             0.706000       1.504008
                          4       1    1fy3              0.706000       0.672613
                          4       1    1fy2z             0.706000       1.504008
                          4       1    1fyz2             0.706000       1.504008
                          4       1    1fz3              0.706000       0.672613

     RI Auxiliary Basis Set                                        cc-pVTZ-RIFIT

       Number of orbital shell sets:                                          32
       Number of orbital shells:                                              32
       Number of primitive Cartesian functions:                               32
       Number of Cartesian basis functions:                                  156
       Number of spherical basis functions:                                  122
       Norm type:                                                              2

       Normalised Cartesian orbitals:

                        Set   Shell   Orbital            Exponent    Coefficient

                          1       1    1s                0.227318       0.234631

                          2       1    1px               0.294546       0.309302
                          2       1    1py               0.294546       0.309302
                          2       1    1pz               0.294546       0.309302

                          3       1    1dx2              0.304138       0.205014
                          3       1    1dxy              0.304138       0.355095
                          3       1    1dxz              0.304138       0.355095
                          3       1    1dy2              0.304138       0.205014
                          3       1    1dyz              0.304138       0.355095
                          3       1    1dz2              0.304138       0.205014

                          4       1    1s                0.541567       0.449934

                          5       1    1px               0.566618       0.700734
                          5       1    1py               0.566618       0.700734
                          5       1    1pz               0.566618       0.700734

                          6       1    1fx3              0.596584       0.460485
                          6       1    1fx2y             0.596584       1.029675
                          6       1    1fx2z             0.596584       1.029675
                          6       1    1fxy2             0.596584       1.029675
                          6       1    1fxyz             0.596584       1.783450
                          6       1    1fxz2             0.596584       1.029675
                          6       1    1fy3              0.596584       0.460485
                          6       1    1fy2z             0.596584       1.029675
                          6       1    1fyz2             0.596584       1.029675
                          6       1    1fz3              0.596584       0.460485

                          7       1    1dx2              0.711214       0.906588
                          7       1    1dxy              0.711214       1.570256
                          7       1    1dxz              0.711214       1.570256
                          7       1    1dy2              0.711214       0.906588
                          7       1    1dyz              0.711214       1.570256
                          7       1    1dz2              0.711214       0.906588

                          8       1    1px               0.843351       1.151995
                          8       1    1py               0.843351       1.151995
                          8       1    1pz               0.843351       1.151995

                          9       1    1s                1.058000       0.743488

                         10       1    1gx4              1.094691       1.427207
                         10       1    1gx3y             1.094691       3.776035
                         10       1    1gx3z             1.094691       3.776035
                         10       1    1gx2y2            1.094691       4.874840
                         10       1    1gx2yz            1.094691       8.443471
                         10       1    1gx2z2            1.094691       4.874840
                         10       1    1gxy3             1.094691       3.776035
                         10       1    1gxy2z            1.094691       8.443471
                         10       1    1gxyz2            1.094691       8.443471
                         10       1    1gxz3             1.094691       3.776035
                         10       1    1gy4              1.094691       1.427207
                         10       1    1gy3z             1.094691       3.776035
                         10       1    1gy2z2            1.094691       4.874840
                         10       1    1gyz3             1.094691       3.776035
                         10       1    1gz4              1.094691       1.427207

                         11       1    1fx3              1.281523       2.572402
                         11       1    1fx2y             1.281523       5.752065
                         11       1    1fx2z             1.281523       5.752065
                         11       1    1fxy2             1.281523       5.752065
                         11       1    1fxyz             1.281523       9.962868
                         11       1    1fxz2             1.281523       5.752065
                         11       1    1fy3              1.281523       2.572402
                         11       1    1fy2z             1.281523       5.752065
                         11       1    1fyz2             1.281523       5.752065
                         11       1    1fz3              1.281523       2.572402

                         12       1    1px               1.363314       2.099834
                         12       1    1py               1.363314       2.099834
                         12       1    1pz               1.363314       2.099834

                         13       1    1dx2              1.457029       3.180378
                         13       1    1dxy              1.457029       5.508576
                         13       1    1dxz              1.457029       5.508576
                         13       1    1dy2              1.457029       3.180378
                         13       1    1dyz              1.457029       5.508576
                         13       1    1dz2              1.457029       3.180378

                         14       1    1s                1.723282       1.071957

                         15       1    1fx3              2.006849       7.056873
                         15       1    1fx2y             2.006849      15.779648
                         15       1    1fx2z             2.006849      15.779648
                         15       1    1fxy2             2.006849      15.779648
                         15       1    1fxyz             2.006849      27.331152
                         15       1    1fxz2             2.006849      15.779648
                         15       1    1fy3              2.006849       7.056873
                         15       1    1fy2z             2.006849      15.779648
                         15       1    1fyz2             2.006849      15.779648
                         15       1    1fz3              2.006849       7.056873

                         16       1    1dx2              3.048551      11.576385
                         16       1    1dxy              3.048551      20.050886
                         16       1    1dxz              3.048551      20.050886
                         16       1    1dy2              3.048551      11.576385
                         16       1    1dyz              3.048551      20.050886
                         16       1    1dz2              3.048551      11.576385

                         17       1    1px               3.621089       7.120149
                         17       1    1py               3.621089       7.120149
                         17       1    1pz               3.621089       7.120149

                         18       1    1gx4              3.695301      40.501616
                         18       1    1gx3y             3.695301     107.157205
                         18       1    1gx3z             3.695301     107.157205
                         18       1    1gx2y2            3.695301     138.339356
                         18       1    1gx2yz            3.695301     239.610794
                         18       1    1gx2z2            3.695301     138.339356
                         18       1    1gxy3             3.695301     107.157205
                         18       1    1gxy2z            3.695301     239.610794
                         18       1    1gxyz2            3.695301     239.610794
                         18       1    1gxz3             3.695301     107.157205
                         18       1    1gy4              3.695301      40.501616
                         18       1    1gy3z             3.695301     107.157205
                         18       1    1gy2z2            3.695301     138.339356
                         18       1    1gyz3             3.695301     107.157205
                         18       1    1gz4              3.695301      40.501616

                         19       1    1s                4.049632       2.034566

                         20       1    1fx3              5.106078      57.696718
                         20       1    1fx2y             5.106078     129.013784
                         20       1    1fx2z             5.106078     129.013784
                         20       1    1fxy2             5.106078     129.013784
                         20       1    1fxyz             5.106078     223.458428
                         20       1    1fxz2             5.106078     129.013784
                         20       1    1fy3              5.106078      57.696718
                         20       1    1fy2z             5.106078     129.013784
                         20       1    1fyz2             5.106078     129.013784
                         20       1    1fz3              5.106078      57.696718

                         21       1    1px               5.333079      11.552144
                         21       1    1py               5.333079      11.552144
                         21       1    1pz               5.333079      11.552144

                         22       1    1dx2              6.121270      39.208669
                         22       1    1dxy              6.121270      67.911407
                         22       1    1dxz              6.121270      67.911407
                         22       1    1dy2              6.121270      39.208669
                         22       1    1dyz              6.121270      67.911407
                         22       1    1dz2              6.121270      39.208669

                         23       1    1s                8.925588       3.680338

                         24       1    1dx2             13.056776     147.612242
                         24       1    1dxy             13.056776     255.671903
                         24       1    1dxz             13.056776     255.671903
                         24       1    1dy2             13.056776     147.612242
                         24       1    1dyz             13.056776     255.671903
                         24       1    1dz2             13.056776     147.612242

                         25       1    1fx3             13.334636     500.221143
                         25       1    1fx2y            13.334636    1118.528479
                         25       1    1fx2z            13.334636    1118.528479
                         25       1    1fxy2            13.334636    1118.528479
                         25       1    1fxyz            13.334636    1937.348155
                         25       1    1fxz2            13.334636    1118.528479
                         25       1    1fy3             13.334636     500.221143
                         25       1    1fy2z            13.334636    1118.528479
                         25       1    1fyz2            13.334636    1118.528479
                         25       1    1fz3             13.334636     500.221143

                         26       1    1px              15.683455      44.487937
                         26       1    1py              15.683455      44.487937
                         26       1    1pz              15.683455      44.487937

                         27       1    1s               17.032290       5.975371

                         28       1    1dx2             44.369008    1255.448660
                         28       1    1dxy             44.369008    2174.500865
                         28       1    1dxz             44.369008    2174.500865
                         28       1    1dy2             44.369008    1255.448660
                         28       1    1dyz             44.369008    2174.500865
                         28       1    1dz2             44.369008    1255.448660

                         29       1    1s               46.777304      12.747836

                         30       1    1px             130.863797     630.905749
                         30       1    1py             130.863797     630.905749
                         30       1    1pz             130.863797     630.905749

                         31       1    1s              131.640208      27.698198

                         32       1    1s              396.329199      63.307060

       Atomic covalent radius [Angstrom]:                                  0.990

       Atomic van der Waals radius [Angstrom]:                             1.750

     The atoms of this atomic kind are PAW atoms (GAPW):
       Hard Gaussian function radius:                                      1.512
       Rho0 radius:                                                        1.512
       Maximum GTO radius used for PAW projector construction:            24.566

     GAPW Soft Basis Set                                            cc-pVTZ_soft

       Number of orbital shell sets:                                           4
       Number of orbital shells:                                              12
       Number of primitive Cartesian functions:                               11
       Number of Cartesian basis functions:                                   39
       Number of spherical basis functions:                                   34
       Norm type:                                                              2

       Normalised Cartesian orbitals:

                        Set   Shell   Orbital            Exponent    Coefficient

                          1       1    1px               2.922000       1.907755
                                                         1.022000       0.085758
                                                         0.381800      -0.001961
                                                         0.130100       0.000253
                          1       1    1py               2.922000       1.907755
                                                         1.022000       0.085758
                                                         0.381800      -0.001961
                                                         0.130100       0.000253
                          1       1    1pz               2.922000       1.907755
                                                         1.022000       0.085758
                                                         0.381800      -0.001961
                                                         0.130100       0.000253

                          1       2    2px               2.922000       0.000000
                                                         1.022000       1.464717
                                                         0.381800       0.000000
                                                         0.130100       0.000000
                          1       2    2py               2.922000       0.000000
                                                         1.022000       1.464717
                                                         0.381800       0.000000
                                                         0.130100       0.000000
                          1       2    2pz               2.922000       0.000000
                                                         1.022000       1.464717
                                                         0.381800       0.000000
                                                         0.130100       0.000000

                          1       3    3px               2.922000      -0.516096
                                                         1.022000       0.384179
                                                         0.381800       0.241561
                                                         0.130100       0.038007
                          1       3    3py               2.922000      -0.516096
                                                         1.022000       0.384179
                                                         0.381800       0.241561
                                                         0.130100       0.038007
                          1       3    3pz               2.922000      -0.516096
                                                         1.022000       0.384179
                                                         0.381800       0.241561
                                                         0.130100       0.038007

                          1       4    4px               2.922000       0.000000
                                                         1.022000       0.000000
                                                         0.381800       0.000000
                                                         0.130100       0.111375
                          1       4    4py               2.922000       0.000000
                                                         1.022000       0.000000
                                                         0.381800       0.000000
                                                         0.130100       0.111375
                          1       4    4pz               2.922000       0.000000
                                                         1.022000       0.000000
                                                         0.381800       0.000000
                                                         0.130100       0.111375

                          2       1    1s                2.694000       0.001585
                                                         0.976800      -0.000265
                                                         0.431300       0.000059
                                                         0.162500      -0.000009

                          2       2    2s                2.694000       0.844859
                                                         0.976800       0.055344
                                                         0.431300      -0.003168
                                                         0.162500       0.000424

                          2       3    3s                2.694000       0.000000
                                                         0.976800       0.700268
                                                         0.431300       0.000000
                                                         0.162500       0.000000

                          2       4    4s                2.694000      -0.608270
                                                         0.976800       0.053189
                                                         0.431300       0.275251
                                                         0.162500       0.071947

                          2       5    5s                2.694000       0.000000
                                                         0.976800       0.000000
                                                         0.431300       0.000000
                                                         0.162500       0.182411

                          3       1    1dx2              1.046000       1.780696
                                                         0.344000       0.000000
                          3       1    1dxy              1.046000       3.084257
                                                         0.344000       0.000000
                          3       1    1dxz              1.046000       3.084257
                                                         0.344000       0.000000
                          3       1    1dy2              1.046000       1.780696
                                                         0.344000       0.000000
                          3       1    1dyz              1.046000       3.084257
                                                         0.344000       0.000000
                          3       1    1dz2              1.046000       1.780696
                                                         0.344000       0.000000

                          3       2    2dx2              1.046000       0.000000
                                                         0.344000       0.254324
                          3       2    2dxy              1.046000       0.000000
                                                         0.344000       0.440501
                          3       2    2dxz              1.046000       0.000000
                                                         0.344000       0.440501
                          3       2    2dy2              1.046000       0.000000
                                                         0.344000       0.254324
                          3       2    2dyz              1.046000       0.000000
                                                         0.344000       0.440501
                          3       2    2dz2              1.046000       0.000000
                                                         0.344000       0.254324

                          4       1    1fx3              0.706000       0.672613
                          4       1    1fx2y             0.706000       1.504008
                          4       1    1fx2z             0.706000       1.504008
                          4       1    1fxy2             0.706000       1.504008
                          4       1    1fxyz             0.706000       2.605018
                          4       1    1fxz2             0.706000       1.504008
                          4       1    1fy3              0.706000       0.672613
                          4       1    1fy2z             0.706000       1.504008
                          4       1    1fyz2             0.706000       1.504008
                          4       1    1fz3              0.706000       0.672613

     AE Potential information for                                            ALL

       Description:                                       All-electron potential
                                          Krack, Parrinello, PCCP 2, 2105 (2000)

       Gaussian exponent of the core charge distribution:               2.974420
       Electronic configuration (s p d ...):                           6  11   0

  2. Atomic kind: H                                     Number of atoms:       5

     Orbital Basis Set                                                   cc-pVTZ

       Number of orbital shell sets:                                           3
       Number of orbital shells:                                               6
       Number of primitive Cartesian functions:                                8
       Number of Cartesian basis functions:                                   15
       Number of spherical basis functions:                                   14
       Norm type:                                                              2

       Normalised Cartesian orbitals:

                        Set   Shell   Orbital            Exponent    Coefficient

                          1       1    1s               33.870000       0.000000
                                                         5.095000       0.000000
                                                         1.159000       0.000000
                                                         0.325800       0.307343
                                                         0.102700       0.000000

                          1       2    2s               33.870000       0.060718
                                                         5.095000       0.109507
                                                         1.159000       0.161468
                                                         0.325800       0.154871
                                                         0.102700       0.049575

                          1       3    3s               33.870000       0.000000
                                                         5.095000       0.000000
                                                         1.159000       0.000000
                                                         0.325800       0.000000
                                                         0.102700       0.129297

                          2       1    1px               1.407000       2.184277
                                                         0.388000       0.000000
                          2       1    1py               1.407000       2.184277
                                                         0.388000       0.000000
                          2       1    1pz               1.407000       2.184277
                                                         0.388000       0.000000

                          2       2    2px               1.407000       0.000000
                                                         0.388000       0.436495
                          2       2    2py               1.407000       0.000000
                                                         0.388000       0.436495
                          2       2    2pz               1.407000       0.000000
                                                         0.388000       0.436495

                          3       1    1dx2              1.057000       1.813597
                          3       1    1dxy              1.057000       3.141241
                          3       1    1dxz              1.057000       3.141241
                          3       1    1dy2              1.057000       1.813597
                          3       1    1dyz              1.057000       3.141241
                          3       1    1dz2              1.057000       1.813597

     RI Auxiliary Basis Set                                        cc-pVTZ-RIFIT

       Number of orbital shell sets:                                          10
       Number of orbital shells:                                              10
       Number of primitive Cartesian functions:                               10
       Number of Cartesian basis functions:                                   35
       Number of spherical basis functions:                                   30
       Norm type:                                                              2

       Normalised Cartesian orbitals:

                        Set   Shell   Orbital            Exponent    Coefficient

                          1       1    1s                0.289740       0.281460

                          2       1    1s                0.526184       0.440315

                          3       1    1px               0.603822       0.758711
                          3       1    1py               0.603822       0.758711
                          3       1    1pz               0.603822       0.758711

                          4       1    1dx2              1.143973       2.082748
                          4       1    1dxy              1.143973       3.607426
                          4       1    1dxz              1.143973       3.607426
                          4       1    1dy2              1.143973       2.082748
                          4       1    1dyz              1.143973       3.607426
                          4       1    1dz2              1.143973       2.082748

                          5       1    1px               1.180408       1.753802
                          5       1    1py               1.180408       1.753802
                          5       1    1pz               1.180408       1.753802

                          6       1    1fx3              1.806306       5.568458
                          6       1    1fx2y             1.806306      12.451451
                          6       1    1fx2z             1.806306      12.451451
                          6       1    1fxy2             1.806306      12.451451
                          6       1    1fxyz             1.806306      21.566546
                          6       1    1fxz2             1.806306      12.451451
                          6       1    1fy3              1.806306       5.568458
                          6       1    1fy2z             1.806306      12.451451
                          6       1    1fyz2             1.806306      12.451451
                          6       1    1fz3              1.806306       5.568458

                          7       1    1dx2              1.809637       4.647235
                          7       1    1dxy              1.809637       8.049248
                          7       1    1dxz              1.809637       8.049248
                          7       1    1dy2              1.809637       4.647235
                          7       1    1dyz              1.809637       8.049248
                          7       1    1dz2              1.809637       4.647235

                          8       1    1s                1.873089       1.141114

                          9       1    1px               2.372549       4.197195
                          9       1    1py               2.372549       4.197195
                          9       1    1pz               2.372549       4.197195

                         10       1    1s                8.512828       3.551939

       Atomic covalent radius [Angstrom]:                                  0.320

       Atomic van der Waals radius [Angstrom]:                             1.090

     The atoms of this atomic kind are PAW atoms (GAPW):
       Hard Gaussian function radius:                                      1.200
       Rho0 radius:                                                        1.200
       Maximum GTO radius used for PAW projector construction:            24.566

     GAPW Soft Basis Set                                            cc-pVTZ_soft

       Number of orbital shell sets:                                           3
       Number of orbital shells:                                               6
       Number of primitive Cartesian functions:                                7
       Number of Cartesian basis functions:                                   15
       Number of spherical basis functions:                                   14
       Norm type:                                                              2

       Normalised Cartesian orbitals:

                        Set   Shell   Orbital            Exponent    Coefficient

                          1       1    1s                5.095000       0.000000
                                                         1.159000       0.000000
                                                         0.325800       0.307343
                                                         0.102700       0.000000

                          1       2    2s                5.095000       0.109507
                                                         1.159000       0.161468
                                                         0.325800       0.154871
                                                         0.102700       0.049575

                          1       3    3s                5.095000       0.000000
                                                         1.159000       0.000000
                                                         0.325800       0.000000
                                                         0.102700       0.129297

                          2       1    1px               1.407000       2.184277
                                                         0.388000       0.000000
                          2       1    1py               1.407000       2.184277
                                                         0.388000       0.000000
                          2       1    1pz               1.407000       2.184277
                                                         0.388000       0.000000

                          2       2    2px               1.407000       0.000000
                                                         0.388000       0.436495
                          2       2    2py               1.407000       0.000000
                                                         0.388000       0.436495
                          2       2    2pz               1.407000       0.000000
                                                         0.388000       0.436495

                          3       1    1dx2              1.057000       1.813597
                          3       1    1dxy              1.057000       3.141241
                          3       1    1dxz              1.057000       3.141241
                          3       1    1dy2              1.057000       1.813597
                          3       1    1dyz              1.057000       3.141241
                          3       1    1dz2              1.057000       1.813597

     AE Potential information for                                            ALL

       Description:                                       All-electron potential
                                          Krack, Parrinello, PCCP 2, 2105 (2000)

       Gaussian exponent of the core charge distribution:              12.500000
       Electronic configuration (s p d ...):                           1   0   0

  3. Atomic kind: C                                     Number of atoms:       8

     Orbital Basis Set                                                   cc-pVTZ

       Number of orbital shell sets:                                           4
       Number of orbital shells:                                              10
       Number of primitive Cartesian functions:                               18
       Number of Cartesian basis functions:                                   35
       Number of spherical basis functions:                                   30
       Norm type:                                                              2

       Normalised Cartesian orbitals:

                        Set   Shell   Orbital            Exponent    Coefficient

                          1       1    1px              18.710000       0.000000
                                                         4.133000       0.000000
                                                         1.200000       0.000000
                                                         0.382700       0.429055
                                                         0.120900       0.000000
                          1       1    1py              18.710000       0.000000
                                                         4.133000       0.000000
                                                         1.200000       0.000000
                                                         0.382700       0.429055
                                                         0.120900       0.000000
                          1       1    1pz              18.710000       0.000000
                                                         4.133000       0.000000
                                                         1.200000       0.000000
                                                         0.382700       0.429055
                                                         0.120900       0.000000

                          1       2    2px              18.710000       0.778253
                                                         4.133000       0.729662
                                                         1.200000       0.519563
                                                         0.382700       0.214960
                                                         0.120900       0.034896
                          1       2    2py              18.710000       0.778253
                                                         4.133000       0.729662
                                                         1.200000       0.519563
                                                         0.382700       0.214960
                                                         0.120900       0.034896
                          1       2    2pz              18.710000       0.778253
                                                         4.133000       0.729662
                                                         1.200000       0.519563
                                                         0.382700       0.214960
                                                         0.120900       0.034896

                          1       3    3px              18.710000       0.000000
                                                         4.133000       0.000000
                                                         1.200000       0.000000
                                                         0.382700       0.000000
                                                         0.120900       0.101619
                          1       3    3py              18.710000       0.000000
                                                         4.133000       0.000000
                                                         1.200000       0.000000
                                                         0.382700       0.000000
                                                         0.120900       0.101619
                          1       3    3pz              18.710000       0.000000
                                                         4.133000       0.000000
                                                         1.200000       0.000000
                                                         0.382700       0.000000
                                                         0.120900       0.101619

                          2       1    1s             8236.000000       0.327184
                                                      1235.000000       0.609945
                                                       280.800000       1.030914
                                                        79.270000       1.549802
                                                        25.590000       1.904111
                                                         8.997000       1.608326
                                                         3.319000       0.606601
                                                         0.905900       0.026060
                                                         0.364300      -0.003002
                                                         0.128500       0.000365

                          2       2    2s             8236.000000       0.000000
                                                      1235.000000       0.000000
                                                       280.800000       0.000000
                                                        79.270000       0.000000
                                                        25.590000       0.000000
                                                         8.997000       0.000000
                                                         3.319000       0.000000
                                                         0.905900       0.661790
                                                         0.364300       0.000000
                                                         0.128500       0.000000

                          2       3    3s             8236.000000      -0.069627
                                                      1235.000000      -0.130363
                                                       280.800000      -0.221954
                                                        79.270000      -0.343330
                                                        25.590000      -0.452153
                                                         8.997000      -0.469816
                                                         3.319000      -0.298547
                                                         0.905900       0.092903
                                                         0.364300       0.200079
                                                         0.128500       0.060480

                          2       4    4s             8236.000000       0.000000
                                                      1235.000000       0.000000
                                                       280.800000       0.000000
                                                        79.270000       0.000000
                                                        25.590000       0.000000
                                                         8.997000       0.000000
                                                         3.319000       0.000000
                                                         0.905900       0.000000
                                                         0.364300       0.000000
                                                         0.128500       0.152963

                          3       1    1dx2              1.097000       1.935401
                                                         0.318000       0.000000
                          3       1    1dxy              1.097000       3.352214
                                                         0.318000       0.000000
                          3       1    1dxz              1.097000       3.352214
                                                         0.318000       0.000000
                          3       1    1dy2              1.097000       1.935401
                                                         0.318000       0.000000
                          3       1    1dyz              1.097000       3.352214
                                                         0.318000       0.000000
                          3       1    1dz2              1.097000       1.935401
                                                         0.318000       0.000000

                          3       2    2dx2              1.097000       0.000000
                                                         0.318000       0.221644
                          3       2    2dxy              1.097000       0.000000
                                                         0.318000       0.383899
                          3       2    2dxz              1.097000       0.000000
                                                         0.318000       0.383899
                          3       2    2dy2              1.097000       0.000000
                                                         0.318000       0.221644
                          3       2    2dyz              1.097000       0.000000
                                                         0.318000       0.383899
                          3       2    2dz2              1.097000       0.000000
                                                         0.318000       0.221644

                          4       1    1fx3              0.761000       0.796288
                          4       1    1fx2y             0.761000       1.780553
                          4       1    1fx2z             0.761000       1.780553
                          4       1    1fxy2             0.761000       1.780553
                          4       1    1fxyz             0.761000       3.084008
                          4       1    1fxz2             0.761000       1.780553
                          4       1    1fy3              0.761000       0.796288
                          4       1    1fy2z             0.761000       1.780553
                          4       1    1fyz2             0.761000       1.780553
                          4       1    1fz3              0.761000       0.796288

     RI Auxiliary Basis Set                                        cc-pVTZ-RIFIT

       Number of orbital shell sets:                                          23
       Number of orbital shells:                                              23
       Number of primitive Cartesian functions:                               23
       Number of Cartesian basis functions:                                  101
       Number of spherical basis functions:                                   81
       Norm type:                                                              2

       Normalised Cartesian orbitals:

                        Set   Shell   Orbital            Exponent    Coefficient

                          1       1    1s                0.215823       0.225675

                          2       1    1px               0.281527       0.292307
                          2       1    1py               0.281527       0.292307
                          2       1    1pz               0.281527       0.292307

                          3       1    1dx2              0.290556       0.189261
                          3       1    1dxy              0.290556       0.327810
                          3       1    1dxz              0.290556       0.327810
                          3       1    1dy2              0.290556       0.189261
                          3       1    1dyz              0.290556       0.327810
                          3       1    1dz2              0.290556       0.189261

                          4       1    1s                0.502749       0.425524

[...]
 scf_env_do_scf_inner_loop           78  4.0    0.002    0.005  124.347  124.354
 qs_ks_update_qs_env                 78  5.0    0.001    0.001   96.156   96.177
 rebuild_ks_matrix                   78  6.0    0.000    0.000   96.148   96.168
 qs_ks_build_kohn_sham_matrix        78  7.0    0.012    0.013   96.148   96.168
 pw_poisson_solve                   278  9.4    2.546    2.988   95.133   96.017
 fft_wrap_pw1pw2                   5652 11.1    0.091    0.136   89.948   91.254
 fft_wrap_pw1pw2_250               3978 12.1    2.735    3.003   85.387   86.851
 tddfpt_apply_coulomb               200  9.0    0.004    0.005   83.933   84.878
 fft3d_ps                          5652 13.1   26.255   28.050   78.140   79.917
 integrate_four_center              478  9.8   10.079   17.617   71.875   72.006
 ps_wavelet_solve                   278 10.4   28.562   41.232   65.472   65.799
 qs_rho_update_rho_low              280  7.9    0.003    0.004   57.822   57.836
 mp_alltoall_z22v                  5652 15.1   45.490   56.161   45.490   56.161
 calculate_rho_elec                 280  8.9    0.611    0.656   50.367   50.382
 tddfpt_apply_hfx                    10  8.0    0.004    0.005   45.888   45.889
 integrate_v_rspace                 278  9.0    0.007    0.008   45.136   45.538
 tddft_hfx_matrix                   400  9.0    0.011    0.012   40.946   41.048
 mp_alltoall_d54                    278 11.4   15.128   38.024   15.128   38.024
 xc_pw_derive                      1671 11.0    0.016    0.020   35.769   37.344
 density_rs2pw                      280  9.9    0.016    0.020   33.631   37.342
 tddfpt_apply_xc_analytic           200  9.0    0.138    0.170   31.321   31.487
 integrate_four_center_main         478 10.8    0.273    0.849   27.608   31.424
 integrate_four_center_bin        89553 11.8   27.336   31.057   27.336   31.057
 hfx_ks_matrix                       78  8.0    0.003    0.003   30.946   30.989
 x_to_yz                           2306 13.7    2.702    3.197   28.457   30.676
 mp_alltoall_d11v                 17608 11.6   26.022   30.026   26.022   30.026
 transfer_rs2pw                    1400 10.8    0.033    0.070   25.759   29.473
 yz_to_x                           2230 14.5    2.031    2.522   21.576   27.723
 potential_pw2rs                    278 10.0    0.058    0.078   25.210   25.602
 xc_pw_divergence                   278 10.7    0.009    0.011   24.152   25.428
 mp_alltoall_d45                    279 11.4   21.568   24.260   21.568   24.260
 transfer_pw2rs                    1391 10.9    0.018    0.025   23.562   23.909
 mp_waitany                       70350 12.8   19.546   23.216   19.546   23.216
 grid_collocate_task_list           280  9.9   15.401   22.504   15.401   22.504
 mp_sync                           2527 11.5   13.511   21.620   13.511   21.620
 rs_gather_matrices                 278 10.0    0.029    0.035   19.216   19.975
 grid_integrate_task_list           278 10.0    0.703   19.560    0.703   19.560
 transfer_rs2pw_250                 560 11.8    4.162    4.720   14.481   19.082
 xc_calc_2nd_deriv_analytical      1400 10.1    0.970    1.163   18.415   18.511
 prepare_gapw_den                   279  8.7    0.007    0.007   17.486   17.706
 integrate_vhg0_rspace              278  9.4    0.520    0.773   13.590   13.792
 qs_vxc_create                       78  8.0    0.001    0.001   13.754   13.764
 xc_vxc_pw_create                    78  9.0    0.220    0.253   13.753   13.762
 transfer_pw2rs_250                 557 11.7    3.990    4.474   12.872   13.340
 mp_sum_dm                        16037 10.0   12.428   12.871   12.428   12.871
 put_rho0_on_grid                   279  9.7    0.661    0.935   12.313   12.533
 sum_up_and_integrate                78  8.0    0.001    0.001   12.363   12.394
 mp_waitall_1                    566674 13.2    9.910   11.761    9.910   11.761
 cp_dbcsr_sm_fm_multiply           1246  8.6    0.027    0.031    9.272    9.394
 calc_screening_functions             1 10.0    4.923    5.116    8.611    8.995
 calculate_xc_2nd_deriv_atom        200  9.0    0.130    2.827    0.381    8.709
 mp_sum_d                         10369  7.4    5.069    8.177    5.069    8.177
 calculate_rho_atom_coeff           280  8.9    0.124    0.210    7.452    7.454
 gaVxcgb_GC                         834  9.7    0.293    7.373    0.293    7.373
 powell_optimize                2811925 11.0    6.952    7.327    6.952    7.327
 xc_rho_set_and_dset_create          79 10.0    0.181    0.224    6.280    6.770
 transfer_rs2pw_30                  280 11.9    2.651    2.779    6.015    6.241
 cp_fm_syevd                        130  7.2    0.001    0.001    6.181    6.198
 dbcsr_complete_redistribute       4151 10.5    0.180    0.240    6.053    6.170
 transfer_pw2rs_30                  278 12.0    2.549    2.772    5.758    6.064
 gspace_mixing                       77  5.0    0.167    0.180    6.038    6.039
 cp_fm_redistribute_end             130  8.2    3.068    6.005    3.078    6.011
 cp_fm_syevd_base                   130  8.2    2.926    5.873    2.926    5.873
 qs_scf_new_mos                      78  5.0    0.001    0.001    5.743    5.753
 transfer_rs2pw_90                  280 11.9    0.715    0.861    3.431    5.127
 calc_pair_dist_radii                 1 10.0    1.519    1.559    4.782    4.975
 eigensolver_symm                    78  6.0    0.003    0.003    4.900    4.908
 mp_sendrecv_dv                  120400 12.9    4.482    4.728    4.482    4.728
 calculate_rho_atom                1395  9.7    2.911    4.618    2.911    4.619
 copy_dbcsr_to_fm                  1346  9.3    0.019    0.020    4.194    4.425
 broyden_mixing                      77  6.0    4.215    4.325    4.354    4.420
 pw_scatter_p                      2862 12.8    3.656    4.354    3.656    4.354
 dbcsr_multiply_generic            1724 10.3    0.083    0.095    3.929    4.154
 copy_fm_to_dbcsr                  2803  9.6    0.014    0.016    4.013    4.126
 integrate_four_center_getP         478 10.8    0.280    0.306    3.748    3.759
 integrate_four_center_dist_KS      478 10.8    0.238    0.268    3.689    3.697
 pw_gather_p                       2790 13.4    3.076    3.669    3.076    3.669
 mp_isendrecv_dv                 325080 12.3    2.000    3.633    2.000    3.633
 transfer_pw2rs_90                  278 12.0    0.686    0.827    3.092    3.560
 cp2k_distribution_to_z_slices      278 10.4    1.299    1.425    2.840    3.475
 rs_grid_zero                      1393 11.9    3.052    3.237    3.052    3.237
 fft_wrap_pw1pw2_90                 558 11.9    0.084    0.145    2.821    3.195
 pw_derive                         2505 11.8    2.746    3.013    2.746    3.013
 cp_dbcsr_sm_fm_multiply_core      1246  9.6    0.003    0.004    2.730    2.947
 create_qs_kind_set                   1  2.0    0.000    0.000    2.915    2.916
 read_qs_kind                         5  3.0    1.648    1.673    2.915    2.916
 mp_alltoall_i11v                 13800 11.5    2.891    2.894    2.891    2.894
 calculate_vxc_atom                  78  8.0    0.075    0.598    2.778    2.780
 mp_sum_dv                        36179  8.9    2.458    2.662    2.458    2.662
 multiply_cannon                   1724 11.3    0.218    0.226    2.376    2.588
 dbcsr_desymmetrize_deep           1347 10.3    0.038    0.048    2.014    2.241
 tddfpt_orthonormalize_psi1_psi      11  6.9    0.029    0.032    2.129    2.130
 multiply_cannon_loop              1724 12.3    0.408    0.432    1.846    2.104
 tddfpt_print_nto_analysis            1  6.0    0.002    0.003    2.075    2.075
 cp_dbcsr_plus_fm_fm_t              278  8.4    0.005    0.005    2.017    2.053
 pw_copy                           3775 11.0    1.896    2.047    1.896    2.047
 pw_copy_to_array                  2790 13.4    1.299    2.021    1.299    2.021
 mp_isend_dv                     184768 13.8    1.166    1.969    1.166    1.969
 transfer_pw2rs_10                  278 12.0    0.668    0.757    1.822    1.960
 parallel_gemm_fm                  1838  8.3    0.002    0.003    1.840    1.875
 parallel_gemm_fm_gemm             1838  9.3    0.002    0.003    1.838    1.872
 cp_fm_gemm                        1838 10.3    1.835    1.870    1.835    1.870
 transfer_rs2pw_10                  280 11.9    0.681    0.736    1.799    1.845
 mp_irecv_dm3                     10050 12.8    0.775    1.837    0.775    1.837
 pw_poisson_set                     279 10.4    0.007    0.008    1.657    1.692
 xc_functional_eval                1747 10.9    0.001    0.006    0.973    1.680
 pbe_lda_eval                      1747 11.9    0.972    1.675    0.972    1.675
 qs_energies_init_hamiltonians        1  3.0    0.000    0.000    1.662    1.662
 build_core_hamiltonian_matrix        1  4.0    0.000    0.000    1.648    1.648
 overlap_condnum                      1  5.0    0.000    0.000    1.642    1.646
 tddfpt_apply_energy_diff            10  8.0    0.001    0.002    1.635    1.635
 arnoldi_conjugate_gradient           5  6.0    0.034    0.041    1.492    1.493
 cp_fm_geeig                         20  7.0    0.001    0.001    1.429    1.431
 tddfpt_compute_residual_vects        9  7.0    0.001    0.001    1.376    1.377
 Vh_1c_gg_integrals                 278  9.4    0.055    0.520    0.716    1.371
 mp_isend_dm3                     10050 12.8    0.598    1.370    0.598    1.370
 parser_read_line                350199  4.0    0.118    0.127    1.267    1.296
 mp_alltoall_i22                   5498 11.4    0.923    1.273    0.923    1.273
 pw_integral_ab_c1d_c1d_gs          278 10.4    0.904    0.911    1.144    1.246
 pw_axpy                           2988 10.8    1.031    1.180    1.031    1.180
 parser_read_line_low               380  5.0    0.110    0.525    1.149    1.178
 make_m2s                          3448 11.3    0.072    0.090    1.071    1.152
 fft_wrap_pw1pw2_30                 558 11.9    0.016    0.017    1.099    1.143
 mp_alltoall_z11v                  1116 14.9    1.069    1.112    1.069    1.112
 broadcast_input_information        380  6.0    0.261    0.284    1.039    1.109
 pw_copy_from_array                2862 12.8    0.846    1.047    0.846    1.047
 hybrid_alltoall_any               4795 13.5    0.047    0.064    0.952    1.016
 mp_max_i                           779  5.2    0.391    1.016    0.391    1.016
 pw_zero                           3074 10.6    0.885    0.998    0.885    0.998
 make_images                       3448 12.3    0.199    0.213    0.880    0.957
 mp_sum_l                          6560 10.6    0.782    0.907    0.782    0.907
 dbcsr_sym_matrix_vector_mult      5075  7.0    0.080    0.087    0.819    0.904
 offload_free_buffer                286 10.2    0.538    0.741    0.538    0.741
 multiply_cannon_metrocomm3       62064 13.3    0.102    0.107    0.373    0.737
 yz_to_xz                           556 14.0    0.050    0.056    0.692    0.732
 integrate_four_center_load         478 10.8    0.001    0.002    0.592    0.714
 hfx_load_balance                     1 11.0    0.000    0.000    0.591    0.713
 hfx_load_balance_range               1 12.0    0.000    0.000    0.561    0.685
 update_ks_atom                     278  8.7    0.090    0.168    0.536    0.641
 pw_poisson_rebuild                 278 10.4    0.000    0.000    0.570    0.593
 ps_wavelet_create                    1 10.0    0.000    0.000    0.570    0.593
 RS_z_slice_distribution              1 11.0    0.498    0.554    0.570    0.593
 cp_fm_trace_a1b1t1_aa            20310  8.0    0.101    0.108    0.567    0.573
 multiply_cannon_metrocomm4       58616 13.3    0.174    0.194    0.380    0.565
 fft_wrap_pw1pw2_10                 558 11.9    0.006    0.006    0.551    0.558
 multiply_cannon_metrocomm1       62064 13.3    0.073    0.077    0.256    0.555
 calculate_rho0_atom               1395  9.7    0.535    0.545    0.535    0.545
 calculate_dm_sparse                 78  6.0    0.001    0.001    0.521    0.543
 mp_bcast_am_src                    380  7.0    0.397    0.481    0.433    0.529
 mp_bcast_i_src                    1520  7.0    0.330    0.521    0.330    0.521
 mp_bcast_dm                      10564  9.7    0.447    0.514    0.447    0.514
 dbcsr_finalize                   16111 11.3    0.052    0.138    0.240    0.512
 xc_2nd_deriv_of_r                 1200 10.0    0.003    0.087    0.015    0.510
 mp_rank_compare                   5652 14.1    0.462    0.484    0.462    0.484
 xz_to_yz                           560 13.9    0.033    0.039    0.461    0.469
 dbcsr_add_d                       7673  7.0    0.007    0.008    0.070    0.468
 dbcsr_add_anytype                 7673  8.0    0.009    0.059    0.063    0.460
 multiply_cannon_multrec          62064 13.3    0.111    0.395    0.119    0.404
 make_images_sizes                 3448 13.3    0.004    0.004    0.370    0.400
 mp_alltoall_i44                   3448 14.3    0.366    0.396    0.366    0.396
 init_scf_run                         1  3.0    0.000    0.000    0.372    0.373
 mp_irecv_dv                     184718 13.8    0.153    0.366    0.153    0.366
 dbcsr_col_vec_to_rep_row          5075  8.0    0.036    0.041    0.281    0.352
 multiply_cannon_metrocomm2       56892 13.3    0.169    0.186    0.310    0.350
 prepare_dr1dr                     1400 11.1    0.298    0.345    0.298    0.345
 rs_scatter_matrices                280  9.9    0.004    0.008    0.303    0.316
 dbcsr_rep_row_to_rep_col_vec      5075  8.0    0.026    0.031    0.138    0.315
 scale_and_distribute               556 11.4    0.286    0.310    0.286    0.310
 tddfpt_construct_ground_state_       1  6.0    0.000    0.000    0.304    0.307
 scf_env_initial_rho_setup            1  4.0    0.000    0.000    0.302    0.302
 qs_init_subsys                       1  2.0    0.005    0.005    0.298    0.298
 mp_cart_sub                       2696 11.3    0.286    0.288    0.286    0.288
 qs_env_setup                         1  3.0    0.000    0.000    0.272    0.279
 qs_env_rebuild_pw_env                2  3.5    0.000    0.000    0.271    0.278
 pw_env_rebuild                       1  5.0    0.001    0.001    0.271    0.277
 dbcsr_merge_all                  13939 12.4    0.103    0.207    0.138    0.276
 mp_allgather_i34                  1724 12.3    0.195    0.252    0.195    0.252
 dbcsr_create_new                 56026 10.9    0.176    0.187    0.228    0.239
 mp_cart_create                    2741 10.5    0.206    0.232    0.209    0.236
 make_images_data                  3448 13.3    0.045    0.060    0.129    0.227
 mp_bcast_dv                       5205  9.0    0.127    0.222    0.127    0.222
 cp_fm_redistribute_start           130  8.2    0.129    0.134    0.176    0.197
 dbcsr_iterator_start             89025  9.9    0.106    0.151    0.129    0.194
 cp_fm_symm                          78  7.0    0.180    0.191    0.180    0.191
 tddfpt_compute_ritz_vects           10  7.0    0.009    0.009    0.178    0.179
 pw_grid_setup                        4  6.0    0.000    0.000    0.166    0.173
 pw_grid_setup_internal               4  7.0    0.003    0.004    0.166    0.172
 dbcsr_copy                       24644  8.1    0.086    0.093    0.155    0.169
 pw_scale                           712  9.5    0.126    0.147    0.126    0.147
 dbcsr_special_finalize            8620 13.3    0.035    0.036    0.102    0.134
 vxc_of_r_new                       468  9.0    0.001    0.020    0.004    0.132
 tddfpt_orthogonalize_psi1_psi0      11  6.9    0.000    0.001    0.117    0.130
 create_kernel_env                    1  6.0    0.000    0.000    0.115    0.126
 xc_prep_2nd_deriv                    1  7.0    0.000    0.000    0.115    0.126
 dbcsr_iterator_stop              89025  9.9    0.078    0.105    0.095    0.125
 cp_fm_triangular_multiply           60  8.0    0.120    0.122    0.120    0.122
 cube_transpose_2                   560 13.9    0.011    0.012    0.113    0.121
 dbcsr_work_create                23906 12.5    0.041    0.067    0.065    0.112
 rs_grid_create                     284 10.4    0.001    0.002    0.013    0.110
 copy_fm_to_dbcsr_bc               2803 10.6    0.034    0.038    0.101    0.109
 mp_isend_iv                     124468 14.3    0.097    0.108    0.097    0.108
 offload_create_buffer              286 11.3    0.011    0.108    0.011    0.108
 cube_transpose_1                   556 14.0    0.009    0.011    0.098    0.104
 cp_fm_cholesky_decompose            20  8.0    0.100    0.101    0.100    0.101
 compute_max_radius                   1  6.0    0.097    0.099    0.097    0.099
 dbcsr_destroy                    45802 10.6    0.058    0.061    0.084    0.093
 dbcsr_data_release              273947 12.0    0.071    0.091    0.071    0.091
 dbcsr_make_images_dense            956 11.7    0.018    0.025    0.050    0.091
 dbcsr_data_new                  161064 12.5    0.070    0.090    0.070    0.090
 dbcsr_work_destroy_all           23906 13.4    0.037    0.063    0.050    0.089
 dbcsr_merge_single_wm             8620 14.3    0.045    0.054    0.056    0.087
 mp_bcast_iv                        435  7.2    0.037    0.083    0.037    0.083
 cp_fm_power                          1  6.0    0.000    0.001    0.083    0.083
 cp_fm_triangular_invert             20  8.0    0.078    0.078    0.078    0.078
 cp_fm_write_unformatted             44  7.5    0.047    0.064    0.049    0.077
 tddfpt_is_nonorthogonal_psi1_p       9  7.0    0.000    0.001    0.072    0.072
 mp_cart_rank                    240660 10.9    0.064    0.071    0.064    0.071
 pw_grid_sort                         4  8.0    0.043    0.045    0.067    0.070
 create_fast_row_vec_access       10150  8.0    0.042    0.046    0.065    0.069
 create_fast_col_vec_access       10150  8.0    0.042    0.046    0.064    0.069
 scf_post_calculation_gpw             1  3.0    0.000    0.000    0.067    0.067
 write_available_results              1  4.0    0.000    0.000    0.067    0.067
 write_mo_free_results                1  5.0    0.003    0.005    0.066    0.067
 mp_irecv_iv                     129402 14.3    0.052    0.061    0.052    0.061
 dbcsr_sym_matrix_vector_mult_l    5075  8.0    0.022    0.040    0.037    0.055
 dbcsr_make_dense_low              2390 12.7    0.012    0.013    0.020    0.053
 mp_max_d                           260  8.4    0.031    0.047    0.031    0.047
 setup_buffer_matrices             3448 12.3    0.014    0.015    0.044    0.046
 dbcsr_iterator_seek              89025 10.9    0.023    0.046    0.023    0.046
 mixing_init                          1  5.0    0.041    0.044    0.045    0.045
 dbcsr_scale_anytype               7675  9.0    0.015    0.016    0.038    0.044
 mp_send_dv                          44  8.5    0.003    0.044    0.003    0.044
 self_consistency_check              78  5.0    0.000    0.000    0.023    0.042
 tddfpt_write_restart                 2  6.5    0.000    0.002    0.041    0.042
 cp_sm_mix                           78  6.0    0.000    0.001    0.022    0.042
 mp_sum_im                          135  9.0    0.036    0.042    0.036    0.042
 -------------------------------------------------------------------------------

 The number of warnings for this run is : 1
 
 -------------------------------------------------------------------------------
  **** **** ******  **  PROGRAM ENDED AT                 2025-04-02 09:11:21.480
 ***** ** ***  *** **   PROGRAM RAN ON                              i08r02c03s03
 **    ****   ******    PROGRAM RAN BY                                   di38fab
 ***** **    ** ** **   PROGRAM PROCESS ID                               1591010
  **** **  *******  **  PROGRAM STOPPED IN /hppfs/scratch/04/di38fab/07_MOL_non_
                                           aug/05_MOL_non_aug/05_MOL/aUKBqsEOTmq
                                           69kFe5R_nOg/5k_set_final_qzvp/CIKTAS/
                                           cc-pVTZ/TDDFT
