SIRIUS 7.5.2, git hash: https://api.github.com/repos/electronic-structure/SIRIUS/git/ref/tags/v7.5.2
 DBCSR| CPU Multiplication driver                                           XSMM (U)
 DBCSR| Multrec recursion limit                                              512 (U)
 DBCSR| Multiplication stack size                                           1000 (D)
 DBCSR| Maximum elements for images                                    UNLIMITED (U)
 DBCSR| Multiplicative factor virtual images                                   1 (U)
 DBCSR| Use multiplication densification                                       T (D)
 DBCSR| Multiplication size stacks                                             3 (U)
 DBCSR| Use memory pool for CPU allocation                                     F (U)
 DBCSR| Number of 3D layers                                               SINGLE (U)
 DBCSR| Use MPI memory allocation                                              F (U)
 DBCSR| Use RMA algorithm                                                      F (U)
 DBCSR| Use Communication thread                                               T (U)
 DBCSR| Communication thread load                                             75 (D)
 DBCSR| MPI: My process id                                                     0
 DBCSR| MPI: Number of processes                                             192
 DBCSR| OMP: Current number of threads                                         4
 DBCSR| OMP: Max number of threads                                             4
 DBCSR| Split modifier for TAS multiplication algorithm                  1.0E+00 (U)


  **** **** ******  **  PROGRAM STARTED AT               2025-03-15 08:29:31.546
 ***** ** ***  *** **   PROGRAM STARTED ON                              n2cn0248
 **    ****   ******    PROGRAM STARTED BY                              metdyn02
 ***** **    ** ** **   PROGRAM PROCESS ID                                865237
  **** **  *******  **  PROGRAM STARTED IN /scratch/hpc-prf-metdyn/metdyn02_Remi
                                           /10_MOL/05_MOL/aUKBqsEOTmq69kFe5R_nOg
                                           /5k_set_final_qzvp/CABBIQ01/TZVP/GW+B
                                           SE/RILIM

 CP2K| version string:                 CP2K version 2025.1 (Development Version)
 CP2K| source code revision number:                                  git:f0c7327
 CP2K| cp2kflags: omp libint fftw3 libxc libgrpp elpa parallel scalapack mpi_f08
 CP2K|             cosma xsmm plumed2 spglib sirius libvori libbqb libvdwxc hdf5
 CP2K| is freely available from                            https://www.cp2k.org/
 CP2K| Program compiled at                          Wed Mar 12 18:25:30 CET 2025
 CP2K| Program compiled on                                              n2login1
 CP2K| Program compiled for                                                local
 CP2K| Data directory path    /opt/software/pc2/EB-SW/software/CP2K/2024.1-foss-
 CP2K| Input file name                                                    GW.inp

 GLOBAL| Force Environment number                                              1
 GLOBAL| Basis set file name            /scratch/hpc-prf-metdyn/metdyn02_Remi/BA
 GLOBAL| Potential file name            /pc2/groups/hpc-prf-metdyn/metdyn02_Remi
 GLOBAL| MM Potential file name                                     MM_POTENTIAL
 GLOBAL| Coordinate file name                                      __STD_INPUT__
 GLOBAL| Method name                                                        CP2K
 GLOBAL| Project name                                                       MoS2
 GLOBAL| Run type                                                         ENERGY
 GLOBAL| FFT library                                                       FFTW3
 GLOBAL| Diagonalization library                                            ELPA
 GLOBAL| DGEMM library                                                      BLAS
 GLOBAL| Minimum number of eigenvectors for ELPA usage                        16
 GLOBAL| Orthonormality check for eigenvectors                          DISABLED
 GLOBAL| Matrix multiplication library                                     COSMA
 GLOBAL| All-to-all communication in single precision                          F
 GLOBAL| FFTs using library dependent lengths                                  F
 GLOBAL| Grid backend                                                       AUTO
 GLOBAL| Global print level                                               MEDIUM
 GLOBAL| MPI I/O enabled                                                       T
 GLOBAL| Total number of message passing processes                           192
 GLOBAL| Number of threads for this process                                    4
 GLOBAL| This output is from process                                           0
 GLOBAL| OpenMP stack size per thread (OMP_STACKSIZE)                    default
 GLOBAL| CPU model name                          AMD EPYC 7763 64-Core Processor
 GLOBAL| CPUID                                                              1002

 MEMORY| system memory details [Kb]
 MEMORY|                        rank 0           min           max       average
 MEMORY| MemTotal            263899260     263899260     263899264     263899262
 MEMORY| MemFree             244205684     242363124     244205684     243279491
 MEMORY| Buffers                118032        118032        233848        176470
 MEMORY| Cached                5921824       5921824       7445900       6732525
 MEMORY| Slab                  2430824       2106872       2448212       2291798
 MEMORY| SReclaimable           630392        317980        630392        453394
 MEMORY| MemLikelyFree       250875932     250375732     250875932     250641881


 *** Fundamental physical constants (SI units) ***

 *** Literature: B. J. Mohr and B. N. Taylor,
 ***             CODATA recommended values of the fundamental physical
 ***             constants: 2006, Web Version 5.1
 ***             http://physics.nist.gov/constants

 Speed of light in vacuum [m/s]                             2.99792458000000E+08
 Magnetic constant or permeability of vacuum [N/A**2]       1.25663706143592E-06
 Electric constant or permittivity of vacuum [F/m]          8.85418781762039E-12
 Planck constant (h) [J*s]                                  6.62606896000000E-34
 Planck constant (h-bar) [J*s]                              1.05457162825177E-34
 Elementary charge [C]                                      1.60217648700000E-19
 Electron mass [kg]                                         9.10938215000000E-31
 Electron g factor [ ]                                     -2.00231930436220E+00
 Proton mass [kg]                                           1.67262163700000E-27
 Fine-structure constant                                    7.29735253760000E-03
 Rydberg constant [1/m]                                     1.09737315685270E+07
 Avogadro constant [1/mol]                                  6.02214179000000E+23
 Boltzmann constant [J/K]                                   1.38065040000000E-23
 Atomic mass unit [kg]                                      1.66053878200000E-27
 Bohr radius [m]                                            5.29177208590000E-11

 *** Conversion factors ***

 [u] -> [a.u.]                                              1.82288848426455E+03
 [Angstrom] -> [Bohr] = [a.u.]                              1.88972613288564E+00
 [a.u.] = [Bohr] -> [Angstrom]                              5.29177208590000E-01
 [a.u.] -> [s]                                              2.41888432650478E-17
 [a.u.] -> [fs]                                             2.41888432650478E-02
 [a.u.] -> [J]                                              4.35974393937059E-18
 [a.u.] -> [N]                                              8.23872205491840E-08
 [a.u.] -> [K]                                              3.15774647902944E+05
 [a.u.] -> [kJ/mol]                                         2.62549961709828E+03
 [a.u.] -> [kcal/mol]                                       6.27509468713739E+02
 [a.u.] -> [Pa]                                             2.94210107994716E+13
 [a.u.] -> [bar]                                            2.94210107994716E+08
 [a.u.] -> [atm]                                            2.90362800883016E+08
 [a.u.] -> [eV]                                             2.72113838565563E+01
 [a.u.] -> [Hz]                                             6.57968392072181E+15
 [a.u.] -> [1/cm] (wave numbers)                            2.19474631370540E+05
 [a.u./Bohr**2] -> [1/cm]                                   5.14048714338585E+03
 

 CELL_TOP| Volume [angstrom^3]:                                     27000.000000
 CELL_TOP| Vector a [angstrom    30.000     0.000     0.000   |a| =    30.000000
 CELL_TOP| Vector b [angstrom     0.000    30.000     0.000   |b| =    30.000000
 CELL_TOP| Vector c [angstrom     0.000     0.000    30.000   |c| =    30.000000
 CELL_TOP| Angle (b,c), alpha [degree]:                                90.000000
 CELL_TOP| Angle (a,c), beta  [degree]:                                90.000000
 CELL_TOP| Angle (a,b), gamma [degree]:                                90.000000
 CELL_TOP| Numerically orthorhombic:                                         YES
 CELL_TOP| Periodicity                                                      NONE

 GENERATE|  Preliminary Number of Bonds generated:                             0
 GENERATE|  Achieved consistency in connectivity generation.

 CELL| Volume [angstrom^3]:                                         27000.000000
 CELL| Vector a [angstrom]:      30.000     0.000     0.000   |a| =    30.000000
 CELL| Vector b [angstrom]:       0.000    30.000     0.000   |b| =    30.000000
 CELL| Vector c [angstrom]:       0.000     0.000    30.000   |c| =    30.000000
 CELL| Angle (b,c), alpha [degree]:                                    90.000000
 CELL| Angle (a,c), beta  [degree]:                                    90.000000
 CELL| Angle (a,b), gamma [degree]:                                    90.000000
 CELL| Numerically orthorhombic:                                             YES
 CELL| Periodicity                                                          NONE

 CELL_REF| Volume [angstrom^3]:                                     27000.000000
 CELL_REF| Vector a [angstrom    30.000     0.000     0.000   |a| =    30.000000
 CELL_REF| Vector b [angstrom     0.000    30.000     0.000   |b| =    30.000000
 CELL_REF| Vector c [angstrom     0.000     0.000    30.000   |c| =    30.000000
 CELL_REF| Angle (b,c), alpha [degree]:                                90.000000
 CELL_REF| Angle (a,c), beta  [degree]:                                90.000000
 CELL_REF| Angle (a,b), gamma [degree]:                                90.000000
 CELL_REF| Numerically orthorhombic:                                         YES
 CELL_REF| Periodicity                                                      NONE

 *******************************************************************************
 *******************************************************************************
 **                                                                           **
 **     #####                         ##              ##                      **
 **    ##   ##            ##          ##              ##                      **
 **   ##     ##                       ##            ######                    **
 **   ##     ##  ##   ##  ##   #####  ##  ##   ####   ##    #####    #####    **
 **   ##     ##  ##   ##  ##  ##      ## ##   ##      ##   ##   ##  ##   ##   **
 **   ##  ## ##  ##   ##  ##  ##      ####     ###    ##   ######   ######    **
 **    ##  ###   ##   ##  ##  ##      ## ##      ##   ##   ##       ##        **
 **     #######   #####   ##   #####  ##  ##  ####    ##    #####   ##        **
 **           ##                                                    ##        **
 **                                                                           **
 **                                                ... make the atoms dance   **
 **                                                                           **
 **            Copyright (C) by CP2K developers group (2000-2025)             **
 **                      J. Chem. Phys. 152, 194103 (2020)                    **
 **                                                                           **
 *******************************************************************************

 DFT| Spin restricted Kohn-Sham (RKS) calculation                            RKS
 DFT| Multiplicity                                                             1
 DFT| Number of spin states                                                    1
 DFT| Charge                                                                   0
 DFT| Self-interaction correction (SIC)                                       NO
 DFT| Cutoffs: density                                              1.000000E-10
 DFT|          gradient                                             1.000000E-10
 DFT|          tau                                                  1.000000E-10
 DFT|          cutoff_smoothing_range                               0.000000E+00
 DFT| XC density smoothing                                                  NONE
 DFT| XC derivatives                                                          PW

 FUNCTIONAL| PBE:
 FUNCTIONAL| J.P.Perdew, K.Burke, M.Ernzerhof, Phys. Rev. Letter, vol. 77, n 18,
 FUNCTIONAL|  pp. 3865-3868, (1996)sx=0.750sc=1.000{spin unpolarized}           


 QS| Method:                                                                GAPW
 QS| Density plane wave grid type                        NON-SPHERICAL FULLSPACE
 QS| Number of grid levels:                                                    4
 QS| Density cutoff [a.u.]:                                                250.0
 QS| Multi grid cutoff [a.u.]: 1) grid level                               250.0
 QS|                           2) grid level                                83.3
 QS|                           3) grid level                                27.8
 QS|                           4) grid level                                 9.3
 QS| Grid level progression factor:                                          3.0
 QS| Relative density cutoff [a.u.]:                                        50.0
 QS| Interaction thresholds: eps_pgf_orb:                                1.0E-12
 QS|                         eps_filter_matrix:                          0.0E+00
 QS|                         eps_core_charge:                            1.0E-14
 QS|                         eps_rho_gspace:                             1.0E-12
 QS|                         eps_rho_rspace:                             1.0E-12
 QS|                         eps_gvg_rspace:                             1.0E-06
 QS|                         eps_ppl:                                    1.0E-02
 QS|                         eps_ppnl:                                   1.0E-08
 QS| GAPW|      One center basis from orbital basis primitives
 QS| GAPW|                   eps_fit:                                    1.0E-04
 QS| GAPW|                   eps_iso:                                    1.0E-12
 QS| GAPW|                   eps_svd:                                    1.0E-08
 QS| GAPW|                   eps_cpc:                                    1.0E-12
 QS| GAPW|   atom-r-grid: quadrature:                                     GC_LOG
 QS| GAPW|      atom-s-grid:  max l :                                          8
 QS| GAPW|      max_l_rho0 :                                                   2


 ATOMIC KIND INFORMATION

  1. Atomic kind: O                                     Number of atoms:       2

     Orbital Basis Set                                        aug-TZVP-MOLOPT-ae

       Number of orbital shell sets:                                           2
       Number of orbital shells:                                              16
       Number of primitive Cartesian functions:                               13
       Number of Cartesian basis functions:                                   71
       Number of spherical basis functions:                                   56
       Norm type:                                                              2

       Normalised Cartesian orbitals:

                        Set   Shell   Orbital            Exponent    Coefficient

                          1       1    1s                0.050000       0.000000
                                                         0.148931       0.008771
                                                         0.454433       0.026241
                                                         1.335408       0.005818
                                                         4.395399       0.718493
                                                        12.309450       2.903007
                                                        62.914956       1.320675

                          1       2    2s                0.050000       0.000000
                                                         0.148931       0.036066
                                                         0.454433       0.073646
                                                         1.335408       0.667362
                                                         4.395399      -0.111917
                                                        12.309450      -0.053902
                                                        62.914956      -0.747743

                          1       3    3s                0.050000       0.000000
                                                         0.148931       0.072341
                                                         0.454433       0.339134
                                                         1.335408      -0.296204
                                                         4.395399      -0.066370
                                                        12.309450      -0.509964
                                                        62.914956       0.182030

                          1       4    4s                0.050000       0.000000
                                                         0.148931       0.257390
                                                         0.454433      -0.327789
                                                         1.335408      -0.186757
                                                         4.395399      -0.014958
                                                        12.309450      -0.201401
                                                        62.914956       1.590188

                          1       5    5s                0.050000       0.095896
                                                         0.148931      -0.062439
                                                         0.454433       0.011784
                                                         1.335408      -0.100924
                                                         4.395399       0.000000
                                                        12.309450       0.000000
                                                        62.914956       0.000000

                          1       6    2px               0.050000       0.000000
                                                         0.148931       0.002211
                                                         0.454433      -0.015509
                                                         1.335408       1.487193
                                                         4.395399       2.867225
                                                        12.309450       3.872733
                                                        62.914956     -23.794765
                          1       6    2py               0.050000       0.000000
                                                         0.148931       0.002211
                                                         0.454433      -0.015509
                                                         1.335408       1.487193
                                                         4.395399       2.867225
                                                        12.309450       3.872733
                                                        62.914956     -23.794765
                          1       6    2pz               0.050000       0.000000
                                                         0.148931       0.002211
                                                         0.454433      -0.015509
                                                         1.335408       1.487193
                                                         4.395399       2.867225
                                                        12.309450       3.872733
                                                        62.914956     -23.794765

                          1       7    3px               0.050000       0.000000
                                                         0.148931       0.008518
                                                         0.454433       0.481961
                                                         1.335408       0.085170
                                                         4.395399       0.441215
                                                        12.309450      -1.837950
                                                        62.914956      36.698597
                          1       7    3py               0.050000       0.000000
                                                         0.148931       0.008518
                                                         0.454433       0.481961
                                                         1.335408       0.085170
                                                         4.395399       0.441215
                                                        12.309450      -1.837950
                                                        62.914956      36.698597
                          1       7    3pz               0.050000       0.000000
                                                         0.148931       0.008518
                                                         0.454433       0.481961
                                                         1.335408       0.085170
                                                         4.395399       0.441215
                                                        12.309450      -1.837950
                                                        62.914956      36.698597

                          1       8    4px               0.050000       0.000000
                                                         0.148931       0.138320
                                                         0.454433      -0.034294
                                                         1.335408      -0.042535
                                                         4.395399      -0.295522
                                                        12.309450       0.600610
                                                        62.914956     -10.152534
                          1       8    4py               0.050000       0.000000
                                                         0.148931       0.138320
                                                         0.454433      -0.034294
                                                         1.335408      -0.042535
                                                         4.395399      -0.295522
                                                        12.309450       0.600610
                                                        62.914956     -10.152534
                          1       8    4pz               0.050000       0.000000
                                                         0.148931       0.138320
                                                         0.454433      -0.034294
                                                         1.335408      -0.042535
                                                         4.395399      -0.295522
                                                        12.309450       0.600610
                                                        62.914956     -10.152534

                          1       9    5px               0.050000      -0.000964
                                                         0.148931       0.027417
                                                         0.454433       0.328542
                                                         1.335408       0.651611
                                                         4.395399       0.000000
                                                        12.309450       0.000000
                                                        62.914956       0.000000
                          1       9    5py               0.050000      -0.000964
                                                         0.148931       0.027417
                                                         0.454433       0.328542
                                                         1.335408       0.651611
                                                         4.395399       0.000000
                                                        12.309450       0.000000
                                                        62.914956       0.000000
                          1       9    5pz               0.050000      -0.000964
                                                         0.148931       0.027417
                                                         0.454433       0.328542
                                                         1.335408       0.651611
                                                         4.395399       0.000000
                                                        12.309450       0.000000
                                                        62.914956       0.000000

                          1      10    3dx2              0.050000       0.000000
                                                         0.148931       0.011799
                                                         0.454433       0.037044
                                                         1.335408       1.177796
                                                         4.395399      13.187048
                                                        12.309450      -3.718320
                                                        62.914956     245.407483
                          1      10    3dxy              0.050000       0.000000
                                                         0.148931       0.020436
                                                         0.454433       0.064161
                                                         1.335408       2.040003
                                                         4.395399      22.840637
                                                        12.309450      -6.440319
                                                        62.914956     425.058229
                          1      10    3dxz              0.050000       0.000000
                                                         0.148931       0.020436
                                                         0.454433       0.064161
                                                         1.335408       2.040003
                                                         4.395399      22.840637
                                                        12.309450      -6.440319
                                                        62.914956     425.058229
                          1      10    3dy2              0.050000       0.000000
                                                         0.148931       0.011799
                                                         0.454433       0.037044
                                                         1.335408       1.177796
                                                         4.395399      13.187048
                                                        12.309450      -3.718320
                                                        62.914956     245.407483
                          1      10    3dyz              0.050000       0.000000
                                                         0.148931       0.020436
                                                         0.454433       0.064161
                                                         1.335408       2.040003
                                                         4.395399      22.840637
                                                        12.309450      -6.440319
                                                        62.914956     425.058229
                          1      10    3dz2              0.050000       0.000000
                                                         0.148931       0.011799
                                                         0.454433       0.037044
                                                         1.335408       1.177796
                                                         4.395399      13.187048
                                                        12.309450      -3.718320
                                                        62.914956     245.407483

                          1      11    4dx2              0.050000       0.000000
                                                         0.148931      -0.006399
                                                         0.454433       0.341143
                                                         1.335408       1.062793
                                                         4.395399      -7.656182
                                                        12.309450       6.262545
                                                        62.914956    -198.939864
                          1      11    4dxy              0.050000       0.000000
                                                         0.148931      -0.011084
                                                         0.454433       0.590877
                                                         1.335408       1.840811
                                                         4.395399     -13.260897
                                                        12.309450      10.847045
                                                        62.914956    -344.573952
                          1      11    4dxz              0.050000       0.000000
                                                         0.148931      -0.011084
                                                         0.454433       0.590877
                                                         1.335408       1.840811
                                                         4.395399     -13.260897
                                                        12.309450      10.847045
                                                        62.914956    -344.573952
                          1      11    4dy2              0.050000       0.000000
                                                         0.148931      -0.006399
                                                         0.454433       0.341143
                                                         1.335408       1.062793
                                                         4.395399      -7.656182
                                                        12.309450       6.262545
                                                        62.914956    -198.939864
                          1      11    4dyz              0.050000       0.000000
                                                         0.148931      -0.011084
                                                         0.454433       0.590877
                                                         1.335408       1.840811
                                                         4.395399     -13.260897
                                                        12.309450      10.847045
                                                        62.914956    -344.573952
                          1      11    4dz2              0.050000       0.000000
                                                         0.148931      -0.006399
                                                         0.454433       0.341143
                                                         1.335408       1.062793
                                                         4.395399      -7.656182
                                                        12.309450       6.262545
                                                        62.914956    -198.939864

                          1      12    5dx2              0.050000      -0.000167
                                                         0.148931       0.000910
                                                         0.454433       0.391605
                                                         1.335408       0.205296
                                                         4.395399       0.000000
                                                        12.309450       0.000000
                                                        62.914956       0.000000
                          1      12    5dxy              0.050000      -0.000290
                                                         0.148931       0.001577
                                                         0.454433       0.678279
                                                         1.335408       0.355584
                                                         4.395399       0.000000
                                                        12.309450       0.000000
                                                        62.914956       0.000000
                          1      12    5dxz              0.050000      -0.000290
                                                         0.148931       0.001577
                                                         0.454433       0.678279
                                                         1.335408       0.355584
                                                         4.395399       0.000000
                                                        12.309450       0.000000
                                                        62.914956       0.000000
                          1      12    5dy2              0.050000      -0.000167
                                                         0.148931       0.000910
                                                         0.454433       0.391605
                                                         1.335408       0.205296
                                                         4.395399       0.000000
                                                        12.309450       0.000000
                                                        62.914956       0.000000
                          1      12    5dyz              0.050000      -0.000290
                                                         0.148931       0.001577
                                                         0.454433       0.678279
                                                         1.335408       0.355584
                                                         4.395399       0.000000
                                                        12.309450       0.000000
                                                        62.914956       0.000000
                          1      12    5dz2              0.050000      -0.000167
                                                         0.148931       0.000910
                                                         0.454433       0.391605
                                                         1.335408       0.205296
                                                         4.395399       0.000000
                                                        12.309450       0.000000
                                                        62.914956       0.000000

                          1      13    4fx3              0.050000       0.000000
                                                         0.148931       0.001654
                                                         0.454433       0.066745
                                                         1.335408       2.406605
                                                         4.395399      -5.031344
                                                        12.309450      16.622131
                                                        62.914956       4.775823
                          1      13    4fx2y             0.050000       0.000000
                                                         0.148931       0.003699
                                                         0.454433       0.149247
                                                         1.335408       5.381333
                                                         4.395399     -11.250428
                                                        12.309450      37.168214
                                                        62.914956      10.679064
                          1      13    4fx2z             0.050000       0.000000
                                                         0.148931       0.003699
                                                         0.454433       0.149247
                                                         1.335408       5.381333
                                                         4.395399     -11.250428
                                                        12.309450      37.168214
                                                        62.914956      10.679064
                          1      13    4fxy2             0.050000       0.000000
                                                         0.148931       0.003699
                                                         0.454433       0.149247
                                                         1.335408       5.381333
                                                         4.395399     -11.250428
                                                        12.309450      37.168214
                                                        62.914956      10.679064
                          1      13    4fxyz             0.050000       0.000000
                                                         0.148931       0.006406
                                                         0.454433       0.258503
                                                         1.335408       9.320743
                                                         4.395399     -19.486313
                                                        12.309450      64.377235
                                                        62.914956      18.496681
                          1      13    4fxz2             0.050000       0.000000
                                                         0.148931       0.003699
                                                         0.454433       0.149247
                                                         1.335408       5.381333
                                                         4.395399     -11.250428
                                                        12.309450      37.168214
                                                        62.914956      10.679064
                          1      13    4fy3              0.050000       0.000000
                                                         0.148931       0.001654
                                                         0.454433       0.066745
                                                         1.335408       2.406605
                                                         4.395399      -5.031344
                                                        12.309450      16.622131
                                                        62.914956       4.775823
                          1      13    4fy2z             0.050000       0.000000
                                                         0.148931       0.003699
                                                         0.454433       0.149247
                                                         1.335408       5.381333
                                                         4.395399     -11.250428
                                                        12.309450      37.168214
                                                        62.914956      10.679064
                          1      13    4fyz2             0.050000       0.000000
                                                         0.148931       0.003699
                                                         0.454433       0.149247
                                                         1.335408       5.381333
                                                         4.395399     -11.250428
                                                        12.309450      37.168214
                                                        62.914956      10.679064
                          1      13    4fz3              0.050000       0.000000
                                                         0.148931       0.001654
                                                         0.454433       0.066745
                                                         1.335408       2.406605
                                                         4.395399      -5.031344
                                                        12.309450      16.622131
                                                        62.914956       4.775823

                          1      14    5fx3              0.050000      -0.000035
                                                         0.148931       0.000216
                                                         0.454433       0.256015
                                                         1.335408      -0.160820
                                                         4.395399       0.000000
                                                        12.309450       0.000000
                                                        62.914956       0.000000
                          1      14    5fx2y             0.050000      -0.000077
                                                         0.148931       0.000483
                                                         0.454433       0.572467
                                                         1.335408      -0.359605
                                                         4.395399       0.000000
                                                        12.309450       0.000000
                                                        62.914956       0.000000
                          1      14    5fx2z             0.050000      -0.000077
                                                         0.148931       0.000483
                                                         0.454433       0.572467
                                                         1.335408      -0.359605
                                                         4.395399       0.000000
                                                        12.309450       0.000000
                                                        62.914956       0.000000
                          1      14    5fxy2             0.050000      -0.000077
                                                         0.148931       0.000483
                                                         0.454433       0.572467
                                                         1.335408      -0.359605
                                                         4.395399       0.000000
                                                        12.309450       0.000000
                                                        62.914956       0.000000
                          1      14    5fxyz             0.050000      -0.000134
                                                         0.148931       0.000837
                                                         0.454433       0.991542
                                                         1.335408      -0.622854
                                                         4.395399       0.000000
                                                        12.309450       0.000000
                                                        62.914956       0.000000
                          1      14    5fxz2             0.050000      -0.000077
                                                         0.148931       0.000483
                                                         0.454433       0.572467
                                                         1.335408      -0.359605
                                                         4.395399       0.000000
                                                        12.309450       0.000000
                                                        62.914956       0.000000
                          1      14    5fy3              0.050000      -0.000035
                                                         0.148931       0.000216
                                                         0.454433       0.256015
                                                         1.335408      -0.160820
                                                         4.395399       0.000000
                                                        12.309450       0.000000
                                                        62.914956       0.000000
                          1      14    5fy2z             0.050000      -0.000077
                                                         0.148931       0.000483
                                                         0.454433       0.572467
                                                         1.335408      -0.359605
                                                         4.395399       0.000000
                                                        12.309450       0.000000
                                                        62.914956       0.000000
                          1      14    5fyz2             0.050000      -0.000077
                                                         0.148931       0.000483
                                                         0.454433       0.572467
                                                         1.335408      -0.359605
                                                         4.395399       0.000000
                                                        12.309450       0.000000
                                                        62.914956       0.000000
                          1      14    5fz3              0.050000      -0.000035
                                                         0.148931       0.000216
                                                         0.454433       0.256015
                                                         1.335408      -0.160820
                                                         4.395399       0.000000
                                                        12.309450       0.000000
                                                        62.914956       0.000000

                          1      15    5gx4              0.050000       0.000008
                                                         0.148931       0.000769
                                                         0.454433       0.118509
                                                         1.335408       0.001274
                                                         4.395399       0.000000
                                                        12.309450       0.000000
                                                        62.914956       0.000000
                          1      15    5gx3y             0.050000       0.000022
                                                         0.148931       0.002034
                                                         0.454433       0.313545
                                                         1.335408       0.003370
                                                         4.395399       0.000000
                                                        12.309450       0.000000
                                                        62.914956       0.000000
                          1      15    5gx3z             0.050000       0.000022
                                                         0.148931       0.002034
                                                         0.454433       0.313545
                                                         1.335408       0.003370
                                                         4.395399       0.000000
                                                        12.309450       0.000000
                                                        62.914956       0.000000
                          1      15    5gx2y2            0.050000       0.000029
                                                         0.148931       0.002626
                                                         0.454433       0.404785
                                                         1.335408       0.004351
                                                         4.395399       0.000000
                                                        12.309450       0.000000
                                                        62.914956       0.000000
                          1      15    5gx2yz            0.050000       0.000050
                                                         0.148931       0.004548
                                                         0.454433       0.701109
                                                         1.335408       0.007536
                                                         4.395399       0.000000
                                                        12.309450       0.000000
                                                        62.914956       0.000000
                          1      15    5gx2z2            0.050000       0.000029
                                                         0.148931       0.002626
                                                         0.454433       0.404785
                                                         1.335408       0.004351
                                                         4.395399       0.000000
                                                        12.309450       0.000000
                                                        62.914956       0.000000
                          1      15    5gxy3             0.050000       0.000022
                                                         0.148931       0.002034
                                                         0.454433       0.313545
                                                         1.335408       0.003370
                                                         4.395399       0.000000
                                                        12.309450       0.000000
                                                        62.914956       0.000000
                          1      15    5gxy2z            0.050000       0.000050
                                                         0.148931       0.004548
                                                         0.454433       0.701109
                                                         1.335408       0.007536
                                                         4.395399       0.000000
                                                        12.309450       0.000000
                                                        62.914956       0.000000
                          1      15    5gxyz2            0.050000       0.000050
                                                         0.148931       0.004548
                                                         0.454433       0.701109
                                                         1.335408       0.007536
                                                         4.395399       0.000000
                                                        12.309450       0.000000
                                                        62.914956       0.000000
                          1      15    5gxz3             0.050000       0.000022
                                                         0.148931       0.002034
                                                         0.454433       0.313545
                                                         1.335408       0.003370
                                                         4.395399       0.000000
                                                        12.309450       0.000000
                                                        62.914956       0.000000
                          1      15    5gy4              0.050000       0.000008
                                                         0.148931       0.000769
                                                         0.454433       0.118509
                                                         1.335408       0.001274
                                                         4.395399       0.000000
                                                        12.309450       0.000000
                                                        62.914956       0.000000
                          1      15    5gy3z             0.050000       0.000022
                                                         0.148931       0.002034
                                                         0.454433       0.313545
                                                         1.335408       0.003370
                                                         4.395399       0.000000
                                                        12.309450       0.000000
                                                        62.914956       0.000000
                          1      15    5gy2z2            0.050000       0.000029
                                                         0.148931       0.002626
                                                         0.454433       0.404785
                                                         1.335408       0.004351
                                                         4.395399       0.000000
                                                        12.309450       0.000000
                                                        62.914956       0.000000
                          1      15    5gyz3             0.050000       0.000022
                                                         0.148931       0.002034
                                                         0.454433       0.313545
                                                         1.335408       0.003370
                                                         4.395399       0.000000
                                                        12.309450       0.000000
                                                        62.914956       0.000000
                          1      15    5gz4              0.050000       0.000008
                                                         0.148931       0.000769
                                                         0.454433       0.118509
                                                         1.335408       0.001274
                                                         4.395399       0.000000
                                                        12.309450       0.000000
                                                        62.914956       0.000000

                          2       1    1s            27032.341107       0.827485
                                                      4052.439160       2.350354
                                                       922.349653       2.989583
                                                       261.277359       5.859993
                                                        85.309424       4.920023
                                                        31.080802       6.525964

     RI Auxiliary Basis Set             RI_aug-TZVP-MOLOPT-ae_N_RI_119_s_p_d_f_g

       Number of orbital shell sets:                                          27
       Number of orbital shells:                                              27
       Number of primitive Cartesian functions:                               27
       Number of Cartesian basis functions:                                  162
       Number of spherical basis functions:                                  119
       Norm type:                                                              2

       Normalised Cartesian orbitals:

                        Set   Shell   Orbital            Exponent    Coefficient

                          1       1   14dx2              0.303628       0.204413
                          1       1   14dxy              0.303628       0.354054
                          1       1   14dxz              0.303628       0.354054
                          1       1   14dy2              0.303628       0.204413
                          1       1   14dyz              0.303628       0.354054
                          1       1   14dz2              0.303628       0.204413

                          2       1    1s                0.313134       0.298337

                          3       1    8px               0.481155       0.571211
                          3       1    8py               0.481155       0.571211
                          3       1    8pz               0.481155       0.571211

                          4       1   15dx2              0.569752       0.614978
                          4       1   15dxy              0.569752       1.065173
                          4       1   15dxz              0.569752       1.065173
                          4       1   15dy2              0.569752       0.614978
                          4       1   15dyz              0.569752       1.065173
                          4       1   15dz2              0.569752       0.614978

                          5       1   20fx3              0.618494       0.499412
                          5       1   20fx2y             0.618494       1.116720
                          5       1   20fx2z             0.618494       1.116720
                          5       1   20fxy2             0.618494       1.116720
                          5       1   20fxyz             0.618494       1.934216
                          5       1   20fxz2             0.618494       1.116720
                          5       1   20fy3              0.618494       0.499412
                          5       1   20fy2z             0.618494       1.116720
                          5       1   20fyz2             0.618494       1.116720
                          5       1   20fz3              0.618494       0.499412

                          6       1   25gx4              0.693241       0.406319
                          6       1   25gx3y             0.693241       1.075020
                          6       1   25gx3z             0.693241       1.075020
                          6       1   25gx2y2            0.693241       1.387844
                          6       1   25gx2yz            0.693241       2.403817
                          6       1   25gx2z2            0.693241       1.387844
                          6       1   25gxy3             0.693241       1.075020
                          6       1   25gxy2z            0.693241       2.403817
                          6       1   25gxyz2            0.693241       2.403817
                          6       1   25gxz3             0.693241       1.075020
                          6       1   25gy4              0.693241       0.406319
                          6       1   25gy3z             0.693241       1.075020
                          6       1   25gy2z2            0.693241       1.387844
                          6       1   25gyz3             0.693241       1.075020
                          6       1   25gz4              0.693241       0.406319

                          7       1    2s                0.796361       0.600818

                          8       1    9px               0.914696       1.275076
                          8       1    9py               0.914696       1.275076
                          8       1    9pz               0.914696       1.275076

                          9       1   27hx5              0.922662       0.571128
                          9       1   27hx4y             0.922662       1.713383
                          9       1   27hx4z             0.922662       1.713383
                          9       1   27hx3y2            0.922662       2.617235
                          9       1   27hx3yz            0.922662       4.533184
                          9       1   27hx3z2            0.922662       2.617235
                          9       1   27hx2y3            0.922662       2.617235
                          9       1   27hx2y2z           0.922662       5.852316
                          9       1   27hx2yz2           0.922662       5.852316
                          9       1   27hx2z3            0.922662       2.617235
                          9       1   27hxy4             0.922662       1.713383
                          9       1   27hxy3z            0.922662       4.533184
                          9       1   27hxy2z2           0.922662       5.852316
                          9       1   27hxyz3            0.922662       4.533184
                          9       1   27hxz4             0.922662       1.713383
                          9       1   27hy5              0.922662       0.571128
                          9       1   27hy4z             0.922662       1.713383
                          9       1   27hy3z2            0.922662       2.617235
                          9       1   27hy2z3            0.922662       2.617235
                          9       1   27hyz4             0.922662       1.713383
                          9       1   27hz5              0.922662       0.571128

                         10       1   21fx3              1.022133       1.546487
                         10       1   21fx2y             1.022133       3.458050
                         10       1   21fx2z             1.022133       3.458050
                         10       1   21fxy2             1.022133       3.458050
                         10       1   21fxyz             1.022133       5.989519
                         10       1   21fxz2             1.022133       3.458050
                         10       1   21fy3              1.022133       1.546487
                         10       1   21fy2z             1.022133       3.458050
                         10       1   21fyz2             1.022133       3.458050
                         10       1   21fz3              1.022133       1.546487

                         11       1   16dx2              1.083996       1.895432
                         11       1   16dxy              1.083996       3.282985
                         11       1   16dxz              1.083996       3.282985
                         11       1   16dy2              1.083996       1.895432
                         11       1   16dyz              1.083996       3.282985
                         11       1   16dz2              1.083996       1.895432

                         12       1    3s                1.262532       0.848871

                         13       1   22fx3              1.716659       4.965850
                         13       1   22fx2y             1.716659      11.103979
                         13       1   22fx2z             1.716659      11.103979
                         13       1   22fxy2             1.716659      11.103979
                         13       1   22fxyz             1.716659      19.232655
                         13       1   22fxz2             1.716659      11.103979
                         13       1   22fy3              1.716659       4.965850
                         13       1   22fy2z             1.716659      11.103979
                         13       1   22fyz2             1.716659      11.103979
                         13       1   22fz3              1.716659       4.965850

                         14       1   17dx2              2.056765       5.814104
                         14       1   17dxy              2.056765      10.070323
                         14       1   17dxz              2.056765      10.070323
                         14       1   17dy2              2.056765       5.814104
                         14       1   17dyz              2.056765      10.070323
                         14       1   17dz2              2.056765       5.814104

                         15       1   10px               2.090735       3.583552
                         15       1   10py               2.090735       3.583552
                         15       1   10pz               2.090735       3.583552

                         16       1   26gx4              2.179110       9.477706
                         16       1   26gx3y             2.179110      25.075652
                         16       1   26gx3z             2.179110      25.075652
                         16       1   26gx2y2            2.179110      32.372528
                         16       1   26gx2yz            2.179110      56.070863
                         16       1   26gx2z2            2.179110      32.372528
                         16       1   26gxy3             2.179110      25.075652
                         16       1   26gxy2z            2.179110      56.070863
                         16       1   26gxyz2            2.179110      56.070863
                         16       1   26gxz3             2.179110      25.075652
                         16       1   26gy4              2.179110       9.477706
                         16       1   26gy3z             2.179110      25.075652
                         16       1   26gy2z2            2.179110      32.372528
                         16       1   26gyz3             2.179110      25.075652
                         16       1   26gz4              2.179110       9.477706

                         17       1   23fx3              2.884307      15.960550
                         17       1   23fx2y             2.884307      35.688875
                         17       1   23fx2z             2.884307      35.688875
                         17       1   23fxy2             2.884307      35.688875
                         17       1   23fxyz             2.884307      61.814944
                         17       1   23fxz2             2.884307      35.688875
                         17       1   23fy3              2.884307      15.960550
                         17       1   23fy2z             2.884307      35.688875
                         17       1   23fyz2             2.884307      35.688875
                         17       1   23fz3              2.884307      15.960550

                         18       1    4s                3.454747       1.806019

                         19       1   18dx2              3.924565      18.011281
                         19       1   18dxy              3.924565      31.196454
                         19       1   18dxz              3.924565      31.196454
                         19       1   18dy2              3.924565      18.011281
                         19       1   18dyz              3.924565      31.196454
                         19       1   18dz2              3.924565      18.011281

                         20       1   24fx3              5.093807      57.385216
                         20       1   24fx2y             5.093807     128.317245
                         20       1   24fx2z             5.093807     128.317245
                         20       1   24fxy2             5.093807     128.317245
                         20       1   24fxyz             5.093807     222.251987
                         20       1   24fxz2             5.093807     128.317245
                         20       1   24fy3              5.093807      57.385216
                         20       1   24fy2z             5.093807     128.317245
                         20       1   24fyz2             5.093807     128.317245
                         20       1   24fz3              5.093807      57.385216

                         21       1   11px               5.255486      11.342431
                         21       1   11py               5.255486      11.342431
                         21       1   11pz               5.255486      11.342431

                         22       1   19dx2              7.665259      58.120780
                         22       1   19dxy              7.665259     100.668144
                         22       1   19dxz              7.665259     100.668144
                         22       1   19dy2              7.665259      58.120780
                         22       1   19dyz              7.665259     100.668144
                         22       1   19dz2              7.665259      58.120780

                         23       1    5s               11.971140       4.586820

                         24       1   12px              12.834518      34.626975
                         24       1   12py              12.834518      34.626975
                         24       1   12pz              12.834518      34.626975

                         25       1   13px              30.936808     104.000269
                         25       1   13py              30.936808     104.000269
                         25       1   13pz              30.936808     104.000269

                         26       1    6s               41.209988      11.592096

                         27       1    7s              127.285581      27.008129

       Atomic covalent radius [Angstrom]:                                  0.730

       Atomic van der Waals radius [Angstrom]:                             1.520

     The atoms of this atomic kind are PAW atoms (GAPW):
       Hard Gaussian function radius:                                      1.512
       Rho0 radius:                                                        1.512
       Maximum GTO radius used for PAW projector construction:            24.566

     GAPW Soft Basis Set                                 aug-TZVP-MOLOPT-ae_soft

       Number of orbital shell sets:                                           2
       Number of orbital shells:                                              16
       Number of primitive Cartesian functions:                                5
       Number of Cartesian basis functions:                                   71
       Number of spherical basis functions:                                   56
       Norm type:                                                              2

       Normalised Cartesian orbitals:

                        Set   Shell   Orbital            Exponent    Coefficient

                          1       1    1s                0.050000       0.000000
                                                         0.148931       0.008771
                                                         0.454433       0.026241
                                                         1.335408       0.005818
                                                         4.395399       0.000000

                          1       2    2s                0.050000       0.000000
                                                         0.148931       0.036066
                                                         0.454433       0.073646
                                                         1.335408       0.667362
                                                         4.395399       0.000000

                          1       3    3s                0.050000       0.000000
                                                         0.148931       0.072341
                                                         0.454433       0.339134
                                                         1.335408      -0.296204
                                                         4.395399       0.000000

                          1       4    4s                0.050000       0.000000
                                                         0.148931       0.257390
                                                         0.454433      -0.327789
                                                         1.335408      -0.186757
                                                         4.395399       0.000000

                          1       5    5s                0.050000       0.095896
                                                         0.148931      -0.062439
                                                         0.454433       0.011784
                                                         1.335408      -0.100924
                                                         4.395399       0.000000

                          1       6    2px               0.050000       0.000000
                                                         0.148931       0.002211
                                                         0.454433      -0.015509
                                                         1.335408       1.487193
                                                         4.395399       0.000000
                          1       6    2py               0.050000       0.000000
                                                         0.148931       0.002211
                                                         0.454433      -0.015509
                                                         1.335408       1.487193
                                                         4.395399       0.000000
                          1       6    2pz               0.050000       0.000000
                                                         0.148931       0.002211
                                                         0.454433      -0.015509
                                                         1.335408       1.487193
                                                         4.395399       0.000000

                          1       7    3px               0.050000       0.000000
                                                         0.148931       0.008518
                                                         0.454433       0.481961
                                                         1.335408       0.085170
                                                         4.395399       0.000000
                          1       7    3py               0.050000       0.000000
                                                         0.148931       0.008518
                                                         0.454433       0.481961
                                                         1.335408       0.085170
                                                         4.395399       0.000000
                          1       7    3pz               0.050000       0.000000
                                                         0.148931       0.008518
                                                         0.454433       0.481961
                                                         1.335408       0.085170
                                                         4.395399       0.000000

                          1       8    4px               0.050000       0.000000
                                                         0.148931       0.138320
                                                         0.454433      -0.034294
                                                         1.335408      -0.042535
                                                         4.395399       0.000000
                          1       8    4py               0.050000       0.000000
                                                         0.148931       0.138320
                                                         0.454433      -0.034294
                                                         1.335408      -0.042535
                                                         4.395399       0.000000
                          1       8    4pz               0.050000       0.000000
                                                         0.148931       0.138320
                                                         0.454433      -0.034294
                                                         1.335408      -0.042535
                                                         4.395399       0.000000

                          1       9    5px               0.050000      -0.000964
                                                         0.148931       0.027417
                                                         0.454433       0.328542
                                                         1.335408       0.651611
                                                         4.395399       0.000000
                          1       9    5py               0.050000      -0.000964
                                                         0.148931       0.027417
                                                         0.454433       0.328542
                                                         1.335408       0.651611
                                                         4.395399       0.000000
                          1       9    5pz               0.050000      -0.000964
                                                         0.148931       0.027417
                                                         0.454433       0.328542
                                                         1.335408       0.651611
                                                         4.395399       0.000000

                          1      10    3dx2              0.050000       0.000000
                                                         0.148931       0.011799
                                                         0.454433       0.037044
                                                         1.335408       1.177796
                                                         4.395399       0.000000
                          1      10    3dxy              0.050000       0.000000
                                                         0.148931       0.020436
                                                         0.454433       0.064161
                                                         1.335408       2.040003
                                                         4.395399       0.000000
                          1      10    3dxz              0.050000       0.000000
                                                         0.148931       0.020436
                                                         0.454433       0.064161
                                                         1.335408       2.040003
                                                         4.395399       0.000000
                          1      10    3dy2              0.050000       0.000000
                                                         0.148931       0.011799
[...]
 https://doi.org/10.1109/JPROC.2004.840301

 M. Krack, M. Parrinello.
 Phys. Chem. Chem. Phys. 2, 2105-2112 (2000).
 All-electron ab-initio molecular dynamics.
 https://doi.org/10.1039/b001167n

 G. Lippert, J. Hutter, M. Parrinello.
 Theor. Chem. Acc. 103, 124-140 (1999).
 The Gaussian and augmented-plane-wave density functional method for ab initio 
 molecular dynamics simulations.
 https://doi.org/10.1007/s002140050523

 J. P. Perdew, K. Burke, M. Ernzerhof.
 Phys. Rev. Lett. 77, 3865-3868 (1996).
 Generalized gradient approximation made simple.
 https://doi.org/10.1103/PhysRevLett.77.3865


 -------------------------------------------------------------------------------
 -                                                                             -
 -                                T I M I N G                                  -
 -                                                                             -
 -------------------------------------------------------------------------------
 SUBROUTINE                       CALLS  ASD         SELF TIME        TOTAL TIME
                                MAXIMUM       AVERAGE  MAXIMUM  AVERAGE  MAXIMUM
 CP2K                                 1  1.0    0.019    0.109  589.994  589.999
 qs_energies                          1  2.0    0.000    0.000  589.478  589.611
 scf_env_do_scf                       1  3.0    0.000    0.000  541.544  541.551
 scf_env_do_scf_inner_loop           58  4.0    0.001    0.003  541.544  541.551
 qs_ks_build_kohn_sham_matrix        59  7.0    0.008    0.011  515.344  515.466
 qs_ks_update_qs_env                 58  5.0    0.000    0.000  514.342  514.462
 rebuild_ks_matrix                   58  6.0    0.000    0.000  514.335  514.455
 hfx_ks_matrix                       59  8.0    0.001    0.001  448.165  448.208
 integrate_four_center               59  9.0    6.655    9.264  448.162  448.206
 integrate_four_center_main          59 10.0    6.134   66.103  246.112  409.964
 integrate_four_center_bin        11282 11.0  239.978  407.550  239.978  407.550
 mp_sync                            719  9.4  166.008  236.859  166.008  236.859
 mp2_main                             1  3.0    0.000    0.000   46.617   46.750
 mp2_gpw_main                         1  4.0    0.000    0.000   45.412   45.427
 rpa_ri_compute_en                    1  5.0    0.000    0.001   38.910   38.911
 rpa_num_int                          1  6.0    0.001    0.001   38.547   38.585
 fft_wrap_pw1pw2                   1230  9.9    0.024    0.030   33.177   36.302
 fft_wrap_pw1pw2_250                876 11.1    0.680    0.840   31.448   35.511
 fft3d_ps                          1230 11.9    4.380    6.119   30.449   33.449
 calc_screening_functions             1 10.0   28.103   28.614   28.450   28.970
 mp_alltoall_z22v                  1230 13.9   24.649   27.261   24.649   27.261
 compute_GW_self_energy             100  7.0    0.001    0.032   24.605   25.252
 compute_GW_self_energy_deep        100  8.0   11.210   11.305   24.298   24.946
 qs_rho_update_rho_low               59  5.0    0.001    0.001   19.768   19.779
 parallel_gemm_fm                   336  8.6    0.001    0.001   17.410   18.092
 parallel_gemm_fm_cosma             336  9.6   17.410   18.092   17.410   18.092
 pw_poisson_solve                    59  8.0    0.195    0.273   17.407   17.426
 calculate_rho_elec                  59  6.0    0.077    0.110   17.279   17.282
 qs_vxc_create                       59  8.0    0.001    0.001   16.190   16.191
 xc_vxc_pw_create                    58  9.0    0.121    0.170   16.190   16.190
 x_to_yz                            525 12.9    0.547    0.951   13.746   15.476
 mp_sum_d                          8403  6.8    8.512   13.620    8.512   13.620
 xc_pw_derive                       348 11.0    0.002    0.003   12.613   12.985
 yz_to_x                            469 13.2    0.416    0.484   11.830   12.897
 prepare_gapw_den                    59  8.0    0.001    0.001   11.706   12.134
 start_bse_calculation                1  7.0    0.000    0.001   11.450   11.451
 density_rs2pw                       59  7.0    0.002    0.003    9.873   10.436
 cp_fm_diag_elpa                     64  7.0    0.000    0.000    9.793    9.825
 cp_fm_diag_elpa_base                64  8.0    8.620    9.416    8.688    9.464
 sum_up_and_integrate                59  8.0    0.001    0.001    8.727    9.212
 integrate_v_rspace                  59  9.0    0.001    0.002    8.673    9.168
 ps_wavelet_solve                    59  9.0    3.470    5.236    8.518    9.102
 potential_pw2rs                     59 10.0    0.006    0.008    8.411    8.457
 xc_pw_divergence                    58 10.0    0.001    0.001    8.102    8.330
 transfer_pw2rs                     296 10.6    0.005    0.007    7.690    8.207
 xc_rho_set_and_dset_create          58 10.0    0.146    0.197    7.401    8.202
 mp_waitany                       19696 11.5    6.875    7.900    6.875    7.900
 grid_collocate_task_list            59  7.0    6.800    7.471    6.800    7.471
 transfer_rs2pw                     296  8.4    0.008    0.011    6.136    6.520
 calculate_rho_atom                 177  9.0    0.834    6.515    0.834    6.515
 mp2_ri_gpw_compute_in                1  5.0    0.003    0.007    6.483    6.486
 mp2_ri_gpw_compute_in_loop           1  6.0    0.000    0.000    6.459    6.461
 mp_sum_dv                        24247 10.4    5.870    6.235    5.870    6.235
 create_hermitian_form_of_ABBA        1  8.0    0.000    0.000    6.165    6.192
 contract_B_L                         4  7.0    0.010    0.012    5.020    6.180
 mp_alltoall_d54                     59 10.0    2.613    5.607    2.613    5.607
 transfer_pw2rs_250                 119 10.9    1.222    1.357    4.902    5.532
 mp2_eri_3c_integrate                 1  7.0    0.002    0.004    1.332    5.532
 integrate_set_3c                   648  8.0    1.222    5.155    1.330    5.529
 mp_cart_create                     413 10.3    4.303    5.456    4.304    5.457
 dbt_pgrid_create_expert             84 10.8    0.000    0.000    4.281    5.435
 put_rho0_on_grid                    59  9.0    0.083    0.128    4.777    5.205
 gspace_mixing                       57  5.0    0.075    0.106    5.105    5.118
 calculate_vxc_atom                  59  8.0    0.024    0.174    4.965    4.965
 cp_fm_power                          2  7.5    0.028    0.036    4.900    4.933
 gaVxcgb_GC                         116  9.0    0.148    4.716    0.148    4.716
 diagonalize_C                        1  8.0    0.000    0.001    4.389    4.402
 transfer_rs2pw_250                 119 10.0    1.202    1.313    3.867    4.254
 integrate_vhg0_rspace               59  8.0    0.235    0.278    3.902    4.182
 mp_sum_dm                         2187  7.6    3.401    3.650    3.401    3.650
 mp_alltoall_d45                     60 10.0    2.941    3.530    2.941    3.530
 fft_wrap_pw1pw2_90                 118 10.5    0.024    0.042    1.341    3.302
 mp_waitall_1                     57174 12.0    2.296    3.086    2.296    3.086
 mp_alltoall_d11v                  1136  9.5    1.979    2.860    1.979    2.860
 qs_scf_new_mos                      58  5.0    0.001    0.001    2.527    2.564
 calculate_rho_atom_coeff            59  6.0    0.111    0.244    2.489    2.498
 broyden_mixing                      57  6.0    2.285    2.323    2.399    2.416
 cp2k_distribution_to_z_slices       59  9.0    0.235    0.285    1.827    2.349
 eigensolver_symm                    59  6.0    0.004    0.005    2.213    2.218
 transfer_pw2rs_90                   59 12.0    0.261    0.317    1.488    1.825
 rpa_num_int_RPA_matrix_operati     100  7.0    0.001    0.003    1.734    1.737
 Vh_1c_gg_integrals                  59  8.0    0.019    0.449    0.797    1.658
 cp_fm_redistribute_end              64  8.0    0.870    1.650    0.881    1.657
 mp_max_i                           567  2.7    0.618    1.558    0.618    1.558
 calc_mat_Q                         100  8.0    0.000    0.000    1.466    1.477
 contract_S_to_Q                    100  9.0    0.000    0.001    1.461    1.471
 pw_integral_ab_c1d_c1d_gs           59  9.0    0.161    0.189    0.619    1.379
 mp_sum_l                           901  5.9    0.565    1.313    0.565    1.313
 transfer_rs2pw_90                   59  9.0    0.282    0.337    1.200    1.283
 integrate_four_center_load          59 10.0    0.000    0.000    0.536    1.282
 hfx_load_balance                     1 11.0    0.000    0.000    0.536    1.282
 hfx_load_balance_range               1 12.0    0.000    0.000    0.523    1.269
 rs_grid_zero                       297 11.1    0.991    1.214    0.991    1.214
 transfer_pw2rs_30                   59 12.0    0.262    0.296    1.048    1.143
 xc_functional_eval                 290 10.9    0.001    0.001    0.654    1.131
 pbe_lda_eval                       290 11.9    0.654    1.130    0.654    1.130
 compute_vec_Sigma_x_minus_vxc_       1  4.0    0.000    0.000    1.015    1.015
 pw_derive                          525 11.3    0.879    0.957    0.879    0.957
 integrate_four_center_getP          59 10.0    0.019    0.023    0.852    0.953
 pw_copy                            880 10.6    0.835    0.949    0.835    0.949
 transfer_rs2pw_30                   59  9.0    0.326    0.357    0.813    0.898
 pw_gather_p                        587 11.8    0.650    0.847    0.650    0.847
 qs_energies_init_hamiltonians        1  3.0    0.000    0.000    0.782    0.782
 build_core_hamiltonian_matrix        1  4.0    0.000    0.000    0.778    0.778
 overlap_condnum                      1  5.0    0.000    0.000    0.769    0.777
 pw_scatter_p                       643 12.1    0.705    0.777    0.705    0.777
 pw_poisson_rebuild                  59  9.0    0.000    0.000    0.743    0.772
 ps_wavelet_create                    1 10.0    0.000    0.000    0.743    0.772
 RS_z_slice_distribution              1 11.0    0.193    0.218    0.743    0.772
 update_ks_atom                      59  8.0    0.061    0.190    0.642    0.759
 calc_pair_dist_radii                 1 10.0    0.427    0.497    0.660    0.737
 dbt_total                            8  8.0    0.000    0.000    0.722    0.722
 mp_sendrecv_dv                   22538 10.0    0.638    0.713    0.638    0.713
 arnoldi_conjugate_gradient           5  6.0    0.014    0.018    0.711    0.711
 grid_integrate_task_list            59 10.0    0.079    0.691    0.079    0.691
 dbt_contract                         4  9.0    0.000    0.000    0.640    0.665
 rs_gather_matrices                  59 10.0    0.002    0.012    0.182    0.663
 powell_optimize                 374630 11.0    0.581    0.630    0.581    0.630
 create_A                             1  8.0    0.007    0.014    0.605    0.619
 mp_bcast_dm                       1416  9.0    0.581    0.597    0.581    0.597
 pw_poisson_set                      60  8.9    0.001    0.001    0.537    0.556
 pw_copy_to_array                   587 11.8    0.403    0.543    0.403    0.543
 calculate_rho0_atom                177  9.0    0.494    0.531    0.494    0.531
 dbcsr_sym_matrix_vector_mult      4755  7.0    0.034    0.037    0.390    0.457
 mp_isend_dm3                      2608 11.5    0.349    0.454    0.349    0.454
 init_scf_run                         1  3.0    0.000    0.000    0.446    0.446
 scf_env_initial_rho_setup            1  4.0    0.000    0.000    0.419    0.421
 cp_fm_syrk                           3  7.0    0.405    0.409    0.405    0.409
 dbt_tas_multiply                     8 11.5    0.000    0.000    0.408    0.408
 dbt_tas_total                        8 12.5    0.001    0.001    0.407    0.407
 integrate_four_center_dist_KS       59 10.0    0.014    0.017    0.386    0.387
 create_integ_mat                     4  6.0    0.003    0.005    0.359    0.385
 abc_contract                       648  9.0    0.108    0.378    0.108    0.378
 array2fm                             4  7.0    0.000    0.000    0.327    0.367
 pw_axpy                            585  9.3    0.298    0.361    0.298    0.361
 pw_copy_from_array                 643 12.1    0.239    0.312    0.239    0.312
 fft_wrap_pw1pw2_30                 118 10.5    0.003    0.004    0.253    0.310
 mp_alltoall_z11v                   236 13.5    0.251    0.299    0.251    0.299
 cp_fm_to_fm_submat_general         112 10.1    0.248    0.297    0.248    0.297
 transfer_rs2pw_10                   59  9.0    0.098    0.116    0.249    0.290
 dbt_copy                            12 10.1    0.000    0.000    0.254    0.290
 mp_isend_dv                      22152 11.8    0.171    0.287    0.171    0.287
 transfer_pw2rs_10                   59 12.0    0.068    0.080    0.247    0.280
 copy_dbcsr_to_fm                    89  6.6    0.001    0.002    0.239    0.273
 cp_fm_redistribute_start            64  8.0    0.173    0.183    0.224    0.265
 cp_fm_cholesky_invert              101  8.0    0.248    0.258    0.248    0.258
 mp2_main_alloc_hfx                   1  4.0    0.116    0.249    0.116    0.249
 mp_sum_i                            21  9.7    0.133    0.248    0.133    0.248
 restraint_control                    1  2.0    0.000    0.000    0.133    0.248
 mp_rank_compare                   1230 12.9    0.174    0.244    0.174    0.244
 dbt_reshape                          8 11.6    0.024    0.033    0.204    0.238
 dbcsr_rep_row_to_rep_col_vec      4755  8.0    0.012    0.016    0.114    0.238
 dbt_tas_dbm                          8 13.5    0.000    0.000    0.237    0.237
 cp_fm_cholesky_decompose           102  9.0    0.217    0.233    0.217    0.233
 create_B                             1  8.0    0.000    0.000    0.195    0.229
 dbm_multiply                         8 15.5    0.206    0.228    0.206    0.228
 mp_waitall_2                        54 15.6    0.178    0.226    0.178    0.226
 pw_zero                            350 10.3    0.201    0.225    0.201    0.225
 dbt_tas_mm_1N                        6 14.5    0.000    0.000    0.201    0.223
 compute_Erpa_by_freq_int           100  8.0    0.001    0.005    0.217    0.217
 array2fm_isendrecv                   4  8.0    0.002    0.003    0.104    0.216
 fm_general_add_bse                   5 10.2    0.000    0.000    0.183    0.206
 dbcsr_multiply_generic             103  8.1    0.003    0.004    0.183    0.204
 dbt_communicate_buffer               8 12.6    0.001    0.001    0.167    0.202
 mp_alltoall_i22                    300  9.2    0.164    0.198    0.164    0.198
 yz_to_xz                           118 14.0    0.008    0.010    0.158    0.191
 array2fm_fill                        4  8.0    0.011    0.016    0.112    0.190
 dbcsr_col_vec_to_rep_row          4755  8.0    0.016    0.019    0.107    0.181
 dbcsr_desymmetrize_deep             91  7.5    0.003    0.004    0.147    0.180
 mp_wait                            146  9.0    0.102    0.175    0.102    0.175
 write_mo_set_to_restart             58  5.0    0.001    0.141    0.131    0.171
 dbcsr_add_d                       7176  7.0    0.003    0.003    0.024    0.152
 write_mo_set_low                     3  6.0    0.000    0.000    0.130    0.151
 cp_fm_write_unformatted              3  7.0    0.128    0.129    0.130    0.151
 dbcsr_add_anytype                 7176  8.0    0.004    0.019    0.021    0.149
 qs_init_subsys                       1  2.0    0.002    0.002    0.148    0.148
 calculate_dm_sparse                 58  6.0    0.000    0.000    0.130    0.142
 cp_dbcsr_plus_fm_fm_t               58  7.0    0.000    0.001    0.130    0.142
 postprocess_bse                      1  9.0    0.000    0.000    0.130    0.139
 mp_isendrecv_dv                  45076 12.0    0.035    0.138    0.035    0.138
 fft_wrap_pw1pw2_10                 118 10.5    0.001    0.001    0.112    0.132
 dbt_remap                            8 10.0    0.001    0.001    0.131    0.132
 xz_to_yz                           118 11.0    0.006    0.007    0.108    0.129
 qs_env_setup                         1  3.0    0.000    0.000    0.125    0.127
 qs_env_rebuild_pw_env                2  3.5    0.000    0.000    0.125    0.127
 pw_env_rebuild                       1  5.0    0.000    0.000    0.125    0.127
 dbcsr_complete_redistribute        209  8.5    0.013    0.016    0.116    0.124
 fm_general_add_bse_5_comm_buff       5 11.2    0.000    0.000    0.101    0.122
 communicate_buffer                   5 12.2    0.000    0.000    0.101    0.122
 cp_fm_uplo_to_full                 168  8.2    0.094    0.122    0.094    0.122
 cp_fm_symm                          59  7.0    0.112    0.118    0.112    0.118
 multiply_cannon                    103  9.1    0.006    0.006    0.098    0.115
 mp_sum_iv                          287  9.6    0.045    0.104    0.045    0.104
 dbt_tas_estimate_result_nze          4 12.0    0.003    0.003    0.102    0.102
 create_qs_kind_set                   1  2.0    0.000    0.000    0.099    0.099
 read_qs_kind                         3  3.0    0.034    0.047    0.099    0.099
 multiply_cannon_loop               103 10.1    0.004    0.004    0.083    0.099
 mp_bcast_dv                       4817  9.0    0.056    0.091    0.056    0.091
 dbcsr_finalize                    8290 10.4    0.003    0.026    0.019    0.091
 scf_post_calculation_gpw             1  3.0    0.000    0.000    0.089    0.089
 write_available_results              1  4.0    0.000    0.000    0.089    0.089
 write_mo_free_results                1  5.0    0.002    0.003    0.089    0.089
 get_oscillator_strengths             1 10.0    0.000    0.000    0.086    0.086
 mult_B_with_W                        1  8.0    0.000    0.000    0.066    0.084
 pw_grid_setup                        4  6.0    0.000    0.000    0.082    0.084
 pw_grid_setup_internal               4  7.0    0.001    0.002    0.082    0.084
 mp_bcast_b_src                     123  7.1    0.053    0.083    0.053    0.083
 array2fm_waitall                     4  8.0    0.000    0.001    0.018    0.079
 array2fm_info                        4  8.0    0.050    0.073    0.052    0.074
 dbt_split_blocks_generic            20  8.8    0.018    0.024    0.070    0.073
 dbt_tas_replicate                    8 13.5    0.021    0.031    0.067    0.073
 dbt_nd_mp_comm                       8 11.0    0.000    0.000    0.021    0.072
 allocate_matrices_gw                 1  7.0    0.000    0.000    0.028    0.066
 vxc_of_r_new                       232  9.0    0.000    0.005    0.002    0.066
 parser_read_line                 13704  4.0    0.002    0.004    0.065    0.065
 rs_scatter_matrices                 59  7.0    0.000    0.002    0.006    0.065
 multiply_cannon_multrec           1552 11.1    0.049    0.064    0.050    0.064
 get_vec_sigma_x                      1  8.0    0.000    0.000    0.027    0.063
 parser_read_line_low                23  5.0    0.002    0.014    0.063    0.063
 make_m2s                           206  9.1    0.002    0.002    0.058    0.063
 broadcast_input_information         23  6.0    0.008    0.008    0.061    0.062
 scale_and_distribute               118 10.0    0.045    0.061    0.045    0.061
 -------------------------------------------------------------------------------

 The number of warnings for this run is : 1
 
 -------------------------------------------------------------------------------
  **** **** ******  **  PROGRAM ENDED AT                 2025-03-15 08:39:23.458
 ***** ** ***  *** **   PROGRAM RAN ON                                  n2cn0248
 **    ****   ******    PROGRAM RAN BY                                  metdyn02
 ***** **    ** ** **   PROGRAM PROCESS ID                                865237
  **** **  *******  **  PROGRAM STOPPED IN /scratch/hpc-prf-metdyn/metdyn02_Remi
                                           /10_MOL/05_MOL/aUKBqsEOTmq69kFe5R_nOg
                                           /5k_set_final_qzvp/CABBIQ01/TZVP/GW+B
                                           SE/RILIM
