 DBCSR| CPU Multiplication driver                                           XSMM (U)
 DBCSR| Multrec recursion limit                                              512 (U)
 DBCSR| Multiplication stack size                                           1000 (D)
 DBCSR| Maximum elements for images                                    UNLIMITED (U)
 DBCSR| Multiplicative factor virtual images                                   1 (U)
 DBCSR| Use multiplication densification                                       T (D)
 DBCSR| Multiplication size stacks                                             3 (U)
 DBCSR| Use memory pool for CPU allocation                                     F (U)
 DBCSR| Number of 3D layers                                               SINGLE (U)
 DBCSR| Use MPI memory allocation                                              F (U)
 DBCSR| Use RMA algorithm                                                      F (U)
 DBCSR| Use Communication thread                                               T (U)
 DBCSR| Communication thread load                                             75 (D)
 DBCSR| MPI: My process id                                                     0
 DBCSR| MPI: Number of processes                                             256
 DBCSR| OMP: Current number of threads                                         4
 DBCSR| OMP: Max number of threads                                             4
 DBCSR| Split modifier for TAS multiplication algorithm                  1.0E+00 (U)


  **** **** ******  **  PROGRAM STARTED AT               2025-06-04 18:37:35.268
 ***** ** ***  *** **   PROGRAM STARTED ON                              n2cn1105
 **    ****   ******    PROGRAM STARTED BY                              metdyn02
 ***** **    ** ** **   PROGRAM PROCESS ID                               2018267
  **** **  *******  **  PROGRAM STARTED IN /scratch/hpc-prf-metdyn/metdyn02_Remi
                                           /10_MOL/05_MOL/W4-11+ALK/li_na_h2/SZV
                                           SR/TDDFT/RILIM

 CP2K| version string:                 CP2K version 2025.1 (Development Version)
 CP2K| source code revision number:                                  git:32ddf85
 CP2K| cp2kflags: omp libint fftw3 libxc libgrpp elpa parallel scalapack mpi_f08
 CP2K|             cosma xsmm plumed2 spglib libvori libbqb libvdwxc hdf5
 CP2K| is freely available from                            https://www.cp2k.org/
 CP2K| Program compiled at                         Mon May 19 11:32:37 CEST 2025
 CP2K| Program compiled on                                              n2login1
 CP2K| Program compiled for                                                local
 CP2K| Data directory path    /opt/software/pc2/EB-SW/software/CP2K/2024.1-foss-
 CP2K| Input file name                                                    GW.inp

 GLOBAL| Force Environment number                                              1
 GLOBAL| Basis set file name            /scratch/hpc-prf-metdyn/metdyn02_Remi/BA
 GLOBAL| Potential file name            /pc2/groups/hpc-prf-metdyn/metdyn02_Remi
 GLOBAL| MM Potential file name                                     MM_POTENTIAL
 GLOBAL| Coordinate file name                                      __STD_INPUT__
 GLOBAL| Method name                                                        CP2K
 GLOBAL| Project name                                                       MoS2
 GLOBAL| Run type                                                         ENERGY
 GLOBAL| FFT library                                                       FFTW3
 GLOBAL| Diagonalization library                                            ELPA
 GLOBAL| Cholesky decomposition library                                ScaLAPACK
 GLOBAL| DGEMM library                                                      BLAS
 GLOBAL| Minimum number of eigenvectors for ELPA usage                        16
 GLOBAL| Orthonormality check for eigenvectors                          DISABLED
 GLOBAL| Matrix multiplication library                                     COSMA
 GLOBAL| All-to-all communication in single precision                          F
 GLOBAL| FFTs using library dependent lengths                                  F
 GLOBAL| Grid backend                                                       AUTO
 GLOBAL| Global print level                                               MEDIUM
 GLOBAL| MPI I/O enabled                                                       T
 GLOBAL| Total number of message passing processes                           256
 GLOBAL| Number of threads for this process                                    4
 GLOBAL| This output is from process                                           0
 GLOBAL| OpenMP stack size per thread (OMP_STACKSIZE)                    default
 GLOBAL| CPU model name                          AMD EPYC 7763 64-Core Processor
 GLOBAL| CPUID                                                              1002

 MEMORY| system memory details [Kb]
 MEMORY|                        rank 0           min           max       average
 MEMORY| MemTotal            263897612     263897564     263897644     263897602
 MEMORY| MemFree             240370264     239667644     242509032     240867759
 MEMORY| Buffers                 48852         33412         99508         57287
 MEMORY| Cached               13232416      10801908      13538408      12414912
 MEMORY| Slab                  1663776       1610768       2304052       1900367
 MEMORY| SReclaimable           283372        283372        698756        434918
 MEMORY| MemLikelyFree       253934904     253556464     253981588     253774877


 *** Fundamental physical constants (SI units) ***

 *** Literature: B. J. Mohr and B. N. Taylor,
 ***             CODATA recommended values of the fundamental physical
 ***             constants: 2006, Web Version 5.1
 ***             http://physics.nist.gov/constants

 Speed of light in vacuum [m/s]                             2.99792458000000E+08
 Magnetic constant or permeability of vacuum [N/A**2]       1.25663706143592E-06
 Electric constant or permittivity of vacuum [F/m]          8.85418781762039E-12
 Planck constant (h) [J*s]                                  6.62606896000000E-34
 Planck constant (h-bar) [J*s]                              1.05457162825177E-34
 Elementary charge [C]                                      1.60217648700000E-19
 Electron mass [kg]                                         9.10938215000000E-31
 Electron g factor [ ]                                     -2.00231930436220E+00
 Proton mass [kg]                                           1.67262163700000E-27
 Fine-structure constant                                    7.29735253760000E-03
 Rydberg constant [1/m]                                     1.09737315685270E+07
 Avogadro constant [1/mol]                                  6.02214179000000E+23
 Boltzmann constant [J/K]                                   1.38065040000000E-23
 Atomic mass unit [kg]                                      1.66053878200000E-27
 Bohr radius [m]                                            5.29177208590000E-11

 *** Conversion factors ***

 [u] -> [a.u.]                                              1.82288848426455E+03
 [Angstrom] -> [Bohr] = [a.u.]                              1.88972613288564E+00
 [a.u.] = [Bohr] -> [Angstrom]                              5.29177208590000E-01
 [a.u.] -> [s]                                              2.41888432650478E-17
 [a.u.] -> [fs]                                             2.41888432650478E-02
 [a.u.] -> [J]                                              4.35974393937059E-18
 [a.u.] -> [N]                                              8.23872205491840E-08
 [a.u.] -> [K]                                              3.15774647902944E+05
 [a.u.] -> [kJ/mol]                                         2.62549961709828E+03
 [a.u.] -> [kcal/mol]                                       6.27509468713739E+02
 [a.u.] -> [Pa]                                             2.94210107994716E+13
 [a.u.] -> [bar]                                            2.94210107994716E+08
 [a.u.] -> [atm]                                            2.90362800883016E+08
 [a.u.] -> [eV]                                             2.72113838565563E+01
 [a.u.] -> [Hz]                                             6.57968392072181E+15
 [a.u.] -> [1/cm] (wave numbers)                            2.19474631370540E+05
 [a.u./Bohr**2] -> [1/cm]                                   5.14048714338585E+03
 

 CELL_TOP| Volume [angstrom^3]:                                     27000.000000
 CELL_TOP| Vector a [angstrom    30.000     0.000     0.000   |a| =    30.000000
 CELL_TOP| Vector b [angstrom     0.000    30.000     0.000   |b| =    30.000000
 CELL_TOP| Vector c [angstrom     0.000     0.000    30.000   |c| =    30.000000
 CELL_TOP| Angle (b,c), alpha [degree]:                                90.000000
 CELL_TOP| Angle (a,c), beta  [degree]:                                90.000000
 CELL_TOP| Angle (a,b), gamma [degree]:                                90.000000
 CELL_TOP| Numerically orthorhombic:                                         YES
 CELL_TOP| Periodicity                                                      NONE

 GENERATE|  Preliminary Number of Bonds generated:                             0
 GENERATE|  Achieved consistency in connectivity generation.

 CELL| Volume [angstrom^3]:                                         27000.000000
 CELL| Vector a [angstrom]:      30.000     0.000     0.000   |a| =    30.000000
 CELL| Vector b [angstrom]:       0.000    30.000     0.000   |b| =    30.000000
 CELL| Vector c [angstrom]:       0.000     0.000    30.000   |c| =    30.000000
 CELL| Angle (b,c), alpha [degree]:                                    90.000000
 CELL| Angle (a,c), beta  [degree]:                                    90.000000
 CELL| Angle (a,b), gamma [degree]:                                    90.000000
 CELL| Numerically orthorhombic:                                             YES
 CELL| Periodicity                                                          NONE

 CELL_REF| Volume [angstrom^3]:                                     27000.000000
 CELL_REF| Vector a [angstrom    30.000     0.000     0.000   |a| =    30.000000
 CELL_REF| Vector b [angstrom     0.000    30.000     0.000   |b| =    30.000000
 CELL_REF| Vector c [angstrom     0.000     0.000    30.000   |c| =    30.000000
 CELL_REF| Angle (b,c), alpha [degree]:                                90.000000
 CELL_REF| Angle (a,c), beta  [degree]:                                90.000000
 CELL_REF| Angle (a,b), gamma [degree]:                                90.000000
 CELL_REF| Numerically orthorhombic:                                         YES
 CELL_REF| Periodicity                                                      NONE

 *******************************************************************************
 *******************************************************************************
 **                                                                           **
 **     #####                         ##              ##                      **
 **    ##   ##            ##          ##              ##                      **
 **   ##     ##                       ##            ######                    **
 **   ##     ##  ##   ##  ##   #####  ##  ##   ####   ##    #####    #####    **
 **   ##     ##  ##   ##  ##  ##      ## ##   ##      ##   ##   ##  ##   ##   **
 **   ##  ## ##  ##   ##  ##  ##      ####     ###    ##   ######   ######    **
 **    ##  ###   ##   ##  ##  ##      ## ##      ##   ##   ##       ##        **
 **     #######   #####   ##   #####  ##  ##  ####    ##    #####   ##        **
 **           ##                                                    ##        **
 **                                                                           **
 **                                                ... make the atoms dance   **
 **                                                                           **
 **            Copyright (C) by CP2K developers group (2000-2025)             **
 **                      J. Chem. Phys. 152, 194103 (2020)                    **
 **                                                                           **
 *******************************************************************************

 DFT| Spin restricted Kohn-Sham (RKS) calculation                            RKS
 DFT| Multiplicity                                                             1
 DFT| Number of spin states                                                    1
 DFT| Charge                                                                   0
 DFT| Self-interaction correction (SIC)                                       NO
 DFT| Cutoffs: density                                              1.000000E-10
 DFT|          gradient                                             1.000000E-10
 DFT|          tau                                                  1.000000E-10
 DFT|          cutoff_smoothing_range                               0.000000E+00
 DFT| XC density smoothing                                                  NONE
 DFT| XC derivatives                                                          PW

 FUNCTIONAL| PBE:
 FUNCTIONAL| J.P.Perdew, K.Burke, M.Ernzerhof, Phys. Rev. Letter, vol. 77, n 18,
 FUNCTIONAL|  pp. 3865-3868, (1996)sx=0.750sc=1.000{spin unpolarized}           


 QS| Method:                                                                GAPW
 QS| Density plane wave grid type                        NON-SPHERICAL FULLSPACE
 QS| Number of grid levels:                                                    4
 QS| Density cutoff [a.u.]:                                                250.0
 QS| Multi grid cutoff [a.u.]: 1) grid level                               250.0
 QS|                           2) grid level                                83.3
 QS|                           3) grid level                                27.8
 QS|                           4) grid level                                 9.3
 QS| Grid level progression factor:                                          3.0
 QS| Relative density cutoff [a.u.]:                                        50.0
 QS| Interaction thresholds: eps_pgf_orb:                                1.0E-12
 QS|                         eps_filter_matrix:                          0.0E+00
 QS|                         eps_core_charge:                            1.0E-14
 QS|                         eps_rho_gspace:                             1.0E-12
 QS|                         eps_rho_rspace:                             1.0E-12
 QS|                         eps_gvg_rspace:                             1.0E-06
 QS|                         eps_ppl:                                    1.0E-02
 QS|                         eps_ppnl:                                   1.0E-08
 QS| GAPW|      One center basis from orbital basis primitives
 QS| GAPW|                   eps_fit:                                    1.0E-04
 QS| GAPW|                   eps_iso:                                    1.0E-12
 QS| GAPW|                   eps_svd:                                    1.0E-08
 QS| GAPW|                   eps_cpc:                                    1.0E-12
 QS| GAPW|   atom-r-grid: quadrature:                                     GC_LOG
 QS| GAPW|      atom-s-grid:  max l :                                          4
 QS| GAPW|      max_l_rho0 :                                                   2
 QS| GAPW|      At least one kind is NOT PAW, i.e. it has only soft AO 
 QS| GAPW|      The NOT PAW atoms are treated fully GPW


 ATOMIC KIND INFORMATION

  1. Atomic kind: na                                    Number of atoms:       1

     Orbital Basis Set                                         aug-SZV-MOLOPT-ae

       Number of orbital shell sets:                                           3
       Number of orbital shells:                                               8
       Number of primitive Cartesian functions:                               19
       Number of Cartesian basis functions:                                   19
       Number of spherical basis functions:                                   18
       Norm type:                                                              2

       Normalised Cartesian orbitals:

                        Set   Shell   Orbital            Exponent    Coefficient

                          1       1    1s                0.050000       0.000000
                                                         0.108147       0.037104
                                                         0.209845       0.162522
                                                         0.424059       0.056577
                                                         0.947368      -0.122164
                                                         2.526244      -0.101401
                                                         9.433006      -0.030471

                          1       2    2s                0.050000       0.078107
                                                         0.108147      -0.002279
                                                         0.209845       0.000248
                                                         0.424059      -0.018260
                                                         0.947368       0.000782
                                                         2.526244       0.000000
                                                         9.433006       0.000000

                          1       3    2px               0.050000       0.000000
                                                         0.108147       0.009360
                                                         0.209845       0.098990
                                                         0.424059       0.202189
                                                         0.947368       0.101540
                                                         2.526244      -0.083045
                                                         9.433006      -0.168233
                          1       3    2py               0.050000       0.000000
                                                         0.108147       0.009360
                                                         0.209845       0.098990
                                                         0.424059       0.202189
                                                         0.947368       0.101540
                                                         2.526244      -0.083045
                                                         9.433006      -0.168233
                          1       3    2pz               0.050000       0.000000
                                                         0.108147       0.009360
                                                         0.209845       0.098990
                                                         0.424059       0.202189
                                                         0.947368       0.101540
                                                         2.526244      -0.083045
                                                         9.433006      -0.168233

                          1       4    3px               0.050000       0.036027
                                                         0.108147      -0.012562
                                                         0.209845       0.017731
                                                         0.424059      -0.001637
                                                         0.947368       0.015218
                                                         2.526244       0.000000
                                                         9.433006       0.000000
                          1       4    3py               0.050000       0.036027
                                                         0.108147      -0.012562
                                                         0.209845       0.017731
                                                         0.424059      -0.001637
                                                         0.947368       0.015218
                                                         2.526244       0.000000
                                                         9.433006       0.000000
                          1       4    3pz               0.050000       0.036027
                                                         0.108147      -0.012562
                                                         0.209845       0.017731
                                                         0.424059      -0.001637
                                                         0.947368       0.015218
                                                         2.526244       0.000000
                                                         9.433006       0.000000

                          1       5    3dx2              0.050000       0.008750
                                                         0.108147       0.000027
                                                         0.209845      -0.001015
                                                         0.424059      -0.003793
                                                         0.947368      -0.012895
                                                         2.526244       0.000000
                                                         9.433006       0.000000
                          1       5    3dxy              0.050000       0.015156
                                                         0.108147       0.000047
                                                         0.209845      -0.001758
                                                         0.424059      -0.006569
                                                         0.947368      -0.022335
                                                         2.526244       0.000000
                                                         9.433006       0.000000
                          1       5    3dxz              0.050000       0.015156
                                                         0.108147       0.000047
                                                         0.209845      -0.001758
                                                         0.424059      -0.006569
                                                         0.947368      -0.022335
                                                         2.526244       0.000000
                                                         9.433006       0.000000
                          1       5    3dy2              0.050000       0.008750
                                                         0.108147       0.000027
                                                         0.209845      -0.001015
                                                         0.424059      -0.003793
                                                         0.947368      -0.012895
                                                         2.526244       0.000000
                                                         9.433006       0.000000
                          1       5    3dyz              0.050000       0.015156
                                                         0.108147       0.000047
                                                         0.209845      -0.001758
                                                         0.424059      -0.006569
                                                         0.947368      -0.022335
                                                         2.526244       0.000000
                                                         9.433006       0.000000
                          1       5    3dz2              0.050000       0.008750
                                                         0.108147       0.000027
                                                         0.209845      -0.001015
                                                         0.424059      -0.003793
                                                         0.947368      -0.012895
                                                         2.526244       0.000000
                                                         9.433006       0.000000

                          2       1    1s              124.842404      -0.352768
                                                        24.709570      -0.371176
                                                         7.679716      -0.111083
                                                         2.954664       0.401930
                                                         1.283212       0.511372
                                                         0.588190       0.115222

                          2       2    2px             124.842404       2.236380
                                                        24.709570       2.958865
                                                         7.679716       3.168932
                                                         2.954664       2.308284
                                                         1.283212       0.829048
                                                         0.588190       0.074678
                          2       2    2py             124.842404       2.236380
                                                        24.709570       2.958865
                                                         7.679716       3.168932
                                                         2.954664       2.308284
                                                         1.283212       0.829048
                                                         0.588190       0.074678
                          2       2    2pz             124.842404       2.236380
                                                        24.709570       2.958865
                                                         7.679716       3.168932
                                                         2.954664       2.308284
                                                         1.283212       0.829048
                                                         0.588190       0.074678

                          3       1    1s             2600.756771       2.378487
                                                       476.845907       3.589896
                                                       133.404301       4.715048
                                                        45.827978       4.651788
                                                        17.796345       2.571961
                                                         7.329518       0.413785

     RI Auxiliary Basis Set             RI_aug-SZV-MOLOPT-ae_N_RI_063_s_p_d_f_g_

       Number of orbital shell sets:                                          19
       Number of orbital shells:                                              19
       Number of primitive Cartesian functions:                               19
       Number of Cartesian basis functions:                                   78
       Number of spherical basis functions:                                   63
       Norm type:                                                              2

       Normalised Cartesian orbitals:

                        Set   Shell   Orbital            Exponent    Coefficient

                          1       1   14dx2              0.093010       0.025783
                          1       1   14dxy              0.093010       0.044658
                          1       1   14dxz              0.093010       0.044658
                          1       1   14dy2              0.093010       0.025783
                          1       1   14dyz              0.093010       0.044658
                          1       1   14dz2              0.093010       0.025783

                          2       1    1s                0.096216       0.123124

                          3       1    8px               0.109921       0.090217
                          3       1    8py               0.109921       0.090217
                          3       1    8pz               0.109921       0.090217

                          4       1    2s                0.205940       0.217879

                          5       1    9px               0.218584       0.213041
                          5       1    9py               0.218584       0.213041
                          5       1    9pz               0.218584       0.213041

                          6       1   19gx4              0.446454       0.121149
                          6       1   19gx3y             0.446454       0.320530
                          6       1   19gx3z             0.446454       0.320530
                          6       1   19gx2y2            0.446454       0.413803
                          6       1   19gx2yz            0.446454       0.716728
                          6       1   19gx2z2            0.446454       0.413803
                          6       1   19gxy3             0.446454       0.320530
                          6       1   19gxy2z            0.446454       0.716728
                          6       1   19gxyz2            0.446454       0.716728
                          6       1   19gxz3             0.446454       0.320530
                          6       1   19gy4              0.446454       0.121149
                          6       1   19gy3z             0.446454       0.320530
                          6       1   19gy2z2            0.446454       0.413803
                          6       1   19gyz3             0.446454       0.320530
                          6       1   19gz4              0.446454       0.121149

                          7       1   17fx3              0.472855       0.272956
                          7       1   17fx2y             0.472855       0.610348
                          7       1   17fx2z             0.472855       0.610348
                          7       1   17fxy2             0.472855       0.610348
                          7       1   17fxyz             0.472855       1.057153
                          7       1   17fxz2             0.472855       0.610348
                          7       1   17fy3              0.472855       0.272956
                          7       1   17fy2z             0.472855       0.610348
                          7       1   17fyz2             0.472855       0.610348
                          7       1   17fz3              0.472855       0.272956

                          8       1    3s                0.780094       0.591589

                          9       1   15dx2              0.785926       1.079760
                          9       1   15dxy              0.785926       1.870200
                          9       1   15dxz              0.785926       1.870200
                          9       1   15dy2              0.785926       1.079760
                          9       1   15dyz              0.785926       1.870200
                          9       1   15dz2              0.785926       1.079760

                         10       1   10px               0.890602       1.233231
                         10       1   10py               0.890602       1.233231
                         10       1   10pz               0.890602       1.233231

                         11       1   18fx3              1.837735       5.788833
                         11       1   18fx2y             1.837735      12.944224
                         11       1   18fx2z             1.837735      12.944224
                         11       1   18fxy2             1.837735      12.944224
                         11       1   18fxyz             1.837735      22.420054
                         11       1   18fxz2             1.837735      12.944224
                         11       1   18fy3              1.837735       5.788833
                         11       1   18fy2z             1.837735      12.944224
                         11       1   18fyz2             1.837735      12.944224
                         11       1   18fz3              1.837735       5.788833

                         12       1    4s                2.761861       1.526903

                         13       1   11px               2.968172       5.553303
                         13       1   11py               2.968172       5.553303
                         13       1   11pz               2.968172       5.553303

                         14       1   12px               5.974949      13.315511
                         14       1   12py               5.974949      13.315511
                         14       1   12pz               5.974949      13.315511

                         15       1   16dx2              7.562808      56.768167
                         15       1   16dxy              7.562808      98.325350
                         15       1   16dxz              7.562808      98.325350
                         15       1   16dy2              7.562808      56.768167
                         15       1   16dyz              7.562808      98.325350
                         15       1   16dz2              7.562808      56.768167

                         16       1    5s                9.701552       3.917789

                         17       1   13px              33.742716     115.921805
                         17       1   13py              33.742716     115.921805
                         17       1   13pz              33.742716     115.921805

                         18       1    6s               36.448726      10.572358

                         19       1    7s              138.979307      28.848464

       Atomic covalent radius [Angstrom]:                                  1.540

       Atomic van der Waals radius [Angstrom]:                             2.270

     The atoms of this atomic kind are PAW atoms (GAPW):
       Hard Gaussian function radius:                                      1.512
       Rho0 radius:                                                        1.512
       Maximum GTO radius used for PAW projector construction:            24.566

     GAPW Soft Basis Set                                  aug-SZV-MOLOPT-ae_soft

       Number of orbital shell sets:                                           3
       Number of orbital shells:                                               8
       Number of primitive Cartesian functions:                                9
       Number of Cartesian basis functions:                                   19
       Number of spherical basis functions:                                   18
       Norm type:                                                              2

       Normalised Cartesian orbitals:

                        Set   Shell   Orbital            Exponent    Coefficient

                          1       1    1s                0.050000       0.000000
                                                         0.108147       0.037104
                                                         0.209845       0.162522
                                                         0.424059       0.056577
                                                         0.947368      -0.122164
                                                         2.526244      -0.101401

                          1       2    2s                0.050000       0.078107
                                                         0.108147      -0.002279
                                                         0.209845       0.000248
                                                         0.424059      -0.018260
                                                         0.947368       0.000782
                                                         2.526244       0.000000

                          1       3    2px               0.050000       0.000000
                                                         0.108147       0.009360
                                                         0.209845       0.098990
                                                         0.424059       0.202189
                                                         0.947368       0.101540
                                                         2.526244      -0.083045
                          1       3    2py               0.050000       0.000000
                                                         0.108147       0.009360
                                                         0.209845       0.098990
                                                         0.424059       0.202189
                                                         0.947368       0.101540
                                                         2.526244      -0.083045
                          1       3    2pz               0.050000       0.000000
                                                         0.108147       0.009360
                                                         0.209845       0.098990
                                                         0.424059       0.202189
                                                         0.947368       0.101540
                                                         2.526244      -0.083045

                          1       4    3px               0.050000       0.036027
                                                         0.108147      -0.012562
                                                         0.209845       0.017731
                                                         0.424059      -0.001637
                                                         0.947368       0.015218
                                                         2.526244       0.000000
                          1       4    3py               0.050000       0.036027
                                                         0.108147      -0.012562
                                                         0.209845       0.017731
                                                         0.424059      -0.001637
                                                         0.947368       0.015218
                                                         2.526244       0.000000
                          1       4    3pz               0.050000       0.036027
                                                         0.108147      -0.012562
                                                         0.209845       0.017731
                                                         0.424059      -0.001637
                                                         0.947368       0.015218
                                                         2.526244       0.000000

                          1       5    3dx2              0.050000       0.008750
                                                         0.108147       0.000027
                                                         0.209845      -0.001015
                                                         0.424059      -0.003793
                                                         0.947368      -0.012895
                                                         2.526244       0.000000
                          1       5    3dxy              0.050000       0.015156
                                                         0.108147       0.000047
                                                         0.209845      -0.001758
                                                         0.424059      -0.006569
                                                         0.947368      -0.022335
                                                         2.526244       0.000000
                          1       5    3dxz              0.050000       0.015156
                                                         0.108147       0.000047
                                                         0.209845      -0.001758
                                                         0.424059      -0.006569
                                                         0.947368      -0.022335
                                                         2.526244       0.000000
                          1       5    3dy2              0.050000       0.008750
                                                         0.108147       0.000027
                                                         0.209845      -0.001015
                                                         0.424059      -0.003793
                                                         0.947368      -0.012895
                                                         2.526244       0.000000
                          1       5    3dyz              0.050000       0.015156
                                                         0.108147       0.000047
                                                         0.209845      -0.001758
                                                         0.424059      -0.006569
                                                         0.947368      -0.022335
                                                         2.526244       0.000000
                          1       5    3dz2              0.050000       0.008750
                                                         0.108147       0.000027
                                                         0.209845      -0.001015
                                                         0.424059      -0.003793
                                                         0.947368      -0.012895
                                                         2.526244       0.000000

                          2       1    1s                2.954664       0.401930
                                                         1.283212       0.511372
                                                         0.588190       0.115222

                          2       2    2px               2.954664       2.308284
                                                         1.283212       0.829048
                                                         0.588190       0.074678
                          2       2    2py               2.954664       2.308284
                                                         1.283212       0.829048
                                                         0.588190       0.074678
                          2       2    2pz               2.954664       2.308284
                                                         1.283212       0.829048
                                                         0.588190       0.074678

                          3       1    1s         

     AE Potential information for                                            ALL

       Description:                                       All-electron potential
                                          Krack, Parrinello, PCCP 2, 2105 (2000)

       Gaussian exponent of the core charge distribution:               8.240971
       Electronic configuration (s p d ...):                           5   6   0

  2. Atomic kind: li                                    Number of atoms:       1

     Orbital Basis Set                                         aug-SZV-MOLOPT-ae

       Number of orbital shell sets:                                           2
       Number of orbital shells:                                               6
       Number of primitive Cartesian functions:                               12
       Number of Cartesian basis functions:                                   15
       Number of spherical basis functions:                                   14
       Norm type:                                                              2

       Normalised Cartesian orbitals:

                        Set   Shell   Orbital            Exponent    Coefficient

                          1       1    1s                0.031084       0.012700
                                                         0.067814       0.056364
                                                         0.156146       0.044301
                                                         0.405851      -0.012244
                                                         1.305830      -0.040912
                                                         6.597564      -0.038883

                          1       2    2s                0.031084       0.052890
                                                         0.067814      -0.000168
                                                         0.156146      -0.000256
                                                         0.405851       0.000043
                                                         1.305830       0.000104
                                                         6.597564       0.000000

                          1       3    2px               0.031084       0.001892
                                                         0.067814       0.021007
                                                         0.156146       0.058488
                                                         0.405851       0.080295
                                                         1.305830       0.074973
                                                         6.597564       0.056666
                          1       3    2py               0.031084       0.001892
                                                         0.067814       0.021007
                                                         0.156146       0.058488
                                                         0.405851       0.080295
                                                         1.305830       0.074973
                                                         6.597564       0.056666
                          1       3    2pz               0.031084       0.001892
                                                         0.067814       0.021007
                                                         0.156146       0.058488
                                                         0.405851       0.080295
                                                         1.305830       0.074973
                                                         6.597564       0.056666

                          1       4    3px               0.031084      -0.000945
                                                         0.067814       0.051077
                                                         0.156146      -0.000811
                                                         0.405851       0.008960
                                                         1.305830       0.038611
                                                         6.597564       0.000000
                          1       4    3py               0.031084      -0.000945
                                                         0.067814       0.051077
                                                         0.156146      -0.000811
                                                         0.405851       0.008960
                                                         1.305830       0.038611
                                                         6.597564       0.000000
                          1       4    3pz               0.031084      -0.000945
                                                         0.067814       0.051077
                                                         0.156146      -0.000811
                                                         0.405851       0.008960
                                                         1.305830       0.038611
                                                         6.597564       0.000000

                          1       5    3dx2              0.031084       0.000452
                                                         0.067814       0.006113
                                                         0.156146       0.034198
                                                         0.405851       0.019071
                                                         1.305830       0.147410
                                                         6.597564       0.000000
                          1       5    3dxy              0.031084       0.000782
                                                         0.067814       0.010588
                                                         0.156146       0.059232
                                                         0.405851       0.033031
                                                         1.305830       0.255321
                                                         6.597564       0.000000
                          1       5    3dxz              0.031084       0.000782
                                                         0.067814       0.010588
                                                         0.156146       0.059232
                                                         0.405851       0.033031
                                                         1.305830       0.255321
                                                         6.597564       0.000000
                          1       5    3dy2              0.031084       0.000452
                                                         0.067814       0.006113
                                                         0.156146       0.034198
                                                         0.405851       0.019071
                                                         1.305830       0.147410
                                                         6.597564       0.000000
                          1       5    3dyz              0.031084       0.000782
                                                         0.067814       0.010588
                                                         0.156146       0.059232
                                                         0.405851       0.033031
                                                         1.305830       0.255321
                                                         6.597564       0.000000
                          1       5    3dz2              0.031084       0.000452
                                                         0.067814       0.006113
                                                         0.156146       0.034198
                                                         0.405851       0.019071
                                                         1.305830       0.147410
                                                         6.597564       0.000000

                          2       1    1s              167.175846       0.303638
                                                        30.651508       0.458287
                                                         8.575187       0.601924
                                                         2.945808       0.593848
                                                         1.143944       0.328337
                                                         0.471139       0.052824

     RI Auxiliary Basis Set             RI_aug-SZV-MOLOPT-ae_N_RI_104_s_p_d_f_g_

       Number of orbital shell sets:                                          20
       Number of orbital shells:                                              20
       Number of primitive Cartesian functions:                               20
       Number of Cartesian basis functions:                                  161
       Number of spherical basis functions:                                  104
       Norm type:                                                              2

       Normalised Cartesian orbitals:

                        Set   Shell   Orbital            Exponent    Coefficient

                          1       1   10dx2              0.100708       0.029633
                          1       1   10dxy              0.100708       0.051325
                          1       1   10dxz              0.100708       0.051325
                          1       1   10dy2              0.100708       0.029633
                          1       1   10dyz              0.100708       0.051325
                          1       1   10dz2              0.100708       0.029633

                          2       1   16gx4              0.111210       0.002651
                          2       1   16gx3y             0.111210       0.007013
                          2       1   16gx3z             0.111210       0.007013
                          2       1   16gx2y2            0.111210       0.009053
                          2       1   16gx2yz            0.111210       0.015681
                          2       1   16gx2z2            0.111210       0.009053
                          2       1   16gxy3             0.111210       0.007013
                          2       1   16gxy2z            0.111210       0.015681
                          2       1   16gxyz2            0.111210       0.015681
                          2       1   16gxz3             0.111210       0.007013
                          2       1   16gy4              0.111210       0.002651
                          2       1   16gy3z             0.111210       0.007013
                          2       1   16gy2z2            0.111210       0.009053
                          2       1   16gyz3             0.111210       0.007013
                          2       1   16gz4              0.111210       0.002651

                          3       1    6px               0.130688       0.112004
                          3       1    6py               0.130688       0.112004
                          3       1    6pz               0.130688       0.112004

                          4       1   14fx3              0.167053       0.026265
                          4       1   14fx2y             0.167053       0.058730
                          4       1   14fx2z             0.167053       0.058730
                          4       1   14fxy2             0.167053       0.058730
                          4       1   14fxyz             0.167053       0.101724
                          4       1   14fxz2             0.167053       0.058730
                          4       1   14fy3              0.167053       0.026265
                          4       1   14fy2z             0.167053       0.058730
                          4       1   14fyz2             0.167053       0.058730
                          4       1   14fz3              0.167053       0.026265

                          5       1    1s                0.237094       0.242159

                          6       1   11dx2              0.287429       0.185711
                          6       1   11dxy              0.287429       0.321661
                          6       1   11dxz              0.287429       0.321661
                          6       1   11dy2              0.287429       0.185711
                          6       1   11dyz              0.287429       0.321661
                          6       1   11dz2              0.287429       0.185711

                          7       1    7px               0.341534       0.372163
                          7       1    7py               0.341534       0.372163
                          7       1    7pz               0.341534       0.372163

                          8       1   18hx5              0.395239       0.036319
                          8       1   18hx4y             0.395239       0.108958
                          8       1   18hx4z             0.395239       0.108958
                          8       1   18hx3y2            0.395239       0.166436
                          8       1   18hx3yz            0.395239       0.288276
                          8       1   18hx3z2            0.395239       0.166436
                          8       1   18hx2y3            0.395239       0.166436
                          8       1   18hx2y2z           0.395239       0.372163
                          8       1   18hx2yz2           0.395239       0.372163
                          8       1   18hx2z3            0.395239       0.166436
                          8       1   18hxy4             0.395239       0.108958
                          8       1   18hxy3z            0.395239       0.288276
                          8       1   18hxy2z2           0.395239       0.372163
                          8       1   18hxyz3            0.395239       0.288276
                          8       1   18hxz4             0.395239       0.108958
                          8       1   18hy5              0.395239       0.036319
                          8       1   18hy4z             0.395239       0.108958
                          8       1   18hy3z2            0.395239       0.166436
                          8       1   18hy2z3            0.395239       0.166436
                          8       1   18hyz4             0.395239       0.108958
                          8       1   18hz5              0.395239       0.036319

                          9       1   19hx5              0.427250       0.046780
                          9       1   19hx4y             0.427250       0.140340
                          9       1   19hx4z             0.427250       0.140340
                          9       1   19hx3y2            0.427250       0.214373
                          9       1   19hx3yz            0.427250       0.371304
                          9       1   19hx3z2            0.427250       0.214373
                          9       1   19hx2y3            0.427250       0.214373
                          9       1   19hx2y2z           0.427250       0.479352
                          9       1   19hx2yz2           0.427250       0.479352
                          9       1   19hx2z3            0.427250       0.214373
                          9       1   19hxy4             0.427250       0.140340
                          9       1   19hxy3z            0.427250       0.371304
                          9       1   19hxy2z2           0.427250       0.479352
                          9       1   19hxyz3            0.427250       0.371304
                          9       1   19hxz4             0.427250       0.140340
                          9       1   19hy5              0.427250       0.046780
                          9       1   19hy4z             0.427250       0.140340
                          9       1   19hy3z2            0.427250       0.214373
                          9       1   19hy2z3            0.427250       0.214373
                          9       1   19hyz4             0.427250       0.140340
                          9       1   19hz5              0.427250       0.046780

                         10       1   17gx4              0.453614       0.126568
                         10       1   17gx3y             0.453614       0.334867
                         10       1   17gx3z             0.453614       0.334867
                         10       1   17gx2y2            0.453614       0.432311
                         10       1   17gx2yz            0.453614       0.748785
                         10       1   17gx2z2            0.453614       0.432311
                         10       1   17gxy3             0.453614       0.334867
                         10       1   17gxy2z            0.453614       0.748785
                         10       1   17gxyz2            0.453614       0.748785
                         10       1   17gxz3             0.453614       0.334867
                         10       1   17gy4              0.453614       0.126568
                         10       1   17gy3z             0.453614       0.334867
                         10       1   17gy2z2            0.453614       0.432311
                         10       1   17gyz3             0.453614       0.334867
                         10       1   17gz4              0.453614       0.126568

                         11       1   20ix6              0.734924       0.140957
                         11       1   20ix5y             0.734924       0.467502
                         11       1   20ix5z             0.734924       0.467502
                         11       1   20ix4y2            0.734924       0.809737
                         11       1   20ix4yz            0.734924       1.402506
                         11       1   20ix4z2            0.734924       0.809737
                         11       1   20ix3y3            0.734924       0.958094
                         11       1   20ix3y2z           0.734924       2.142364
                         11       1   20ix3yz2           0.734924       2.142364
                         11       1   20ix3z3            0.734924       0.958094
                         11       1   20ix2y4            0.734924       0.809737
                         11       1   20ix2y3z           0.734924       2.142364
                         11       1   20ix2y2z2          0.734924       2.765780
                         11       1   20ix2yz3           0.734924       2.142364
                         11       1   20ix2z4            0.734924       0.809737
                         11       1   20ixy5             0.734924       0.467502
                         11       1   20ixy4z            0.734924       1.402506
                         11       1   20ixy3z2           0.734924       2.142364
                         11       1   20ixy2z3           0.734924       2.142364
                         11       1   20ixyz4            0.734924       1.402506
                         11       1   20ixz5             0.734924       0.467502
                         11       1   20iy6              0.734924       0.140957
                         11       1   20iy5z             0.734924       0.467502
                         11       1   20iy4z2            0.734924       0.809737
                         11       1   20iy3z3            0.734924       0.958094
                         11       1   20iy2z4            0.734924       0.809737
                         11       1   20iyz5             0.734924       0.467502
                         11       1   20iz6              0.734924       0.140957

                         12       1   12dx2              0.816064       1.153259
                         12       1   12dxy              0.816064       1.997503
                         12       1   12dxz              0.816064       1.997503
                         12       1   12dy2              0.816064       1.153259
                         12       1   12dyz              0.816064       1.997503
                         12       1   12dz2              0.816064       1.153259

                         13       1    2s                0.920527       0.669788

                         14       1   15fx3              1.072909       1.724731
                         14       1   15fx2y             1.072909       3.856616
                         14       1   15fx2z             1.072909       3.856616
                         14       1   15fxy2             1.072909       3.856616
                         14       1   15fxyz             1.072909       6.679854
                         14       1   15fxz2             1.072909       3.856616
                         14       1   15fy3              1.072909       1.724731
                         14       1   15fy2z             1.072909       3.856616
                         14       1   15fyz2             1.072909       3.856616
                         14       1   15fz3              1.072909       1.724731

                         15       1    8px               1.335026       2.045513
                         15       1    8py               1.335026       2.045513
                         15       1    8pz               1.335026       2.045513

                         16       1   13dx2              2.328691       7.225292
                         16       1   13dxy              2.328691      12.514572
                         16       1   13dxz              2.328691      12.514572
                         16       1   13dy2              2.328691       7.225292
                         16       1   13dyz              2.328691      12.514572
                         16       1   13dz2              2.328691       7.225292

                         17       1    3s                2.633969       1.473561

                         18       1    9px               6.490610      14.767161
                         18       1    9py               6.490610      14.767161
                         18       1    9pz               6.490610      14.767161

                         19       1    4s                8.419142       3.522581

                         20       1    5s               37.612393      10.824512

       Atomic covalent radius [Angstrom]:                                  1.230

       Atomic van der Waals radius [Angstrom]:                             1.820

     The atoms of this atomic kind are PAW atoms (GAPW):
       Hard Gaussian function radius:                                      1.512
       Rho0 radius:                                                        1.512
       Maximum GTO radius used for PAW projector construction:            24.566

     GAPW Soft Basis Set                                  aug-SZV-MOLOPT-ae_soft

       Number of orbital shell sets:                                           2
       Number of orbital shells:                                               6
       Number of primitive Cartesian functions:                                8
       Number of Cartesian basis functions:                                   15
       Number of spherical basis functions:                                   14
       Norm type:                                                              2

       Normalised Cartesian orbitals:

                        Set   Shell   Orbital            Exponent    Coefficient

                          1       1    1s                0.031084       0.012700
                                                         0.067814       0.056364
                                                         0.156146       0.044301
                                                         0.405851      -0.012244
                                                         1.305830      -0.040912

                          1       2    2s                0.031084       0.052890
                                                         0.067814      -0.000168
                                                         0.156146      -0.000256
                                                         0.405851       0.000043
                                                         1.305830       0.000104

                          1       3    2px               0.031084       0.001892
                                                         0.067814       0.021007
                                                         0.156146       0.058488
                                                         0.405851       0.080295
                                                         1.305830       0.074973
                          1       3    2py               0.031084       0.001892
                                                         0.067814       0.021007
                                                         0.156146       0.058488
                                                         0.405851       0.080295
                                                         1.305830       0.074973
                          1       3    2pz               0.031084       0.001892
                                                         0.067814       0.021007
                                                         0.156146       0.058488
                                                         0.405851       0.080295
                                                         1.305830       0.074973

                          1       4    3px               0.031084      -0.000945
                                                         0.067814       0.051077
                                                         0.156146      -0.000811
                                                         0.405851       0.008960
                                                         1.305830       0.038611
                          1       4    3py               0.031084      -0.000945
                                                         0.067814       0.051077
                                                         0.156146      -0.000811
                                                         0.405851       0.008960
                                                         1.305830       0.038611
                          1       4    3pz               0.031084      -0.000945
                                                         0.067814       0.051077
                                                         0.156146      -0.000811
                                                         0.405851       0.008960
                                                         1.305830       0.038611

                          1       5    3dx2              0.031084       0.000452
                                                         0.067814       0.006113
                                                         0.156146       0.034198
                                                         0.405851       0.019071
                                                         1.305830       0.147410
                          1       5    3dxy              0.031084       0.000782
                                                         0.067814       0.010588
                                                         0.156146       0.059232
                                                         0.405851       0.033031
                                                         1.305830       0.255321
                          1       5    3dxz              0.031084       0.000782
                                                         0.067814       0.010588
                                                         0.156146       0.059232
                                                         0.405851       0.033031
                                                         1.305830       0.255321
                          1       5    3dy2              0.031084       0.000452
                                                         0.067814       0.006113
                                                         0.156146       0.034198
                                                         0.405851       0.019071
                                                         1.305830       0.147410
                          1       5    3dyz              0.031084       0.000782
                                                         0.067814       0.010588
                                                         0.156146       0.059232
                                                         0.405851       0.033031
                                                         1.305830       0.255321
                          1       5    3dz2              0.031084       0.000452
                                                         0.067814       0.006113
                                                         0.156146       0.034198
                                                         0.405851       0.019071
                                                         1.305830       0.147410

                          2       1    1s                2.945808       0.593848
                                                         1.143944       0.328337
                                                         0.471139       0.052824

     AE Potential information for                                            ALL

       Description:                                       All-electron potential
                                          Krack, Parrinello, PCCP 2, 2105 (2000)

       Gaussian exponent of the core charge distribution:               3.125000
       Electronic configuration (s p d ...):                           3   0   0

  3. Atomic kind: h                                     Number of atoms:       2

     Orbital Basis Set                                      aug-SZV-MOLOPT-ae-SR

       Number of orbital shell sets:                                           1
       Number of orbital shells:                                               4
       Number of primitive Cartesian functions:                                4
       Number of Cartesian basis functions:                                    6
       Number of spherical basis functions:                                    6
       Norm type:                                                              2

       Normalised Cartesian orbitals:

                        Set   Shell   Orbital            Exponent    Coefficient

                          1       1    2s                0.065428       0.000000
                                                         0.168855       0.083474
                                                         0.623914       0.267839
                                                         3.425251       0.276934

                          1       2    3s                0.065428      -0.066952
                                                         0.168855       0.261968
                                                         0.623914       0.081548
                                                         3.425251      -0.022414

                          1       3    4s                0.065428       0.165615
                                                         0.168855      -0.226449
                                                         0.623914      -0.005802
                                                         3.425251       0.005451

                          1       4    3px               0.065428       0.053063
                                                         0.168855      -0.030502
                                                         0.623914       0.062721
                                                         3.425251       0.019012
                          1       4    3py               0.065428       0.053063
                                                         0.168855      -0.030502
                                                         0.623914       0.062721
                                                         3.425251       0.019012
                          1       4    3pz               0.065428       0.053063
                                                         0.168855      -0.030502
                                                         0.623914       0.062721
                                                         3.425251       0.019012

     RI Auxiliary Basis Set             RI_aug-SZV-MOLOPT-ae-SR_N_RI_035_s_p_d_f

       Number of orbital shell sets:                                          15
       Number of orbital shells:                                              15
       Number of primitive Cartesian functions:                               15
       Number of Cartesian basis functions:                                   37
       Number of spherical basis functions:                                   35
       Norm type:                                                              2

       Normalised Cartesian orbitals:

                        Set   Shell   Orbital            Exponent    Coefficient

                          1       1    1s                0.236911       0.242019

                          2       1    8px               0.347892       0.380843
                          2       1    8py               0.347892       0.380843
                          2       1    8pz               0.347892       0.380843

                          3       1    2s                0.423897       0.374417

                          4       1    9px               0.493166       0.589089
                          4       1    9py               0.493166       0.589089
                          4       1    9pz               0.493166       0.589089

                          5       1   14dx2              0.625366       0.723843
                          5       1   14dxy              0.625366       1.253733
                          5       1   14dxz              0.625366       1.253733
                          5       1   14dy2              0.625366       0.723843
                          5       1   14dyz              0.625366       1.253733
                          5       1   14dz2              0.625366       0.723843

                          6       1   10px               0.699103       0.911206
                          6       1   10py               0.699103       0.911206
                          6       1   10pz               0.699103       0.911206

                          7       1    3s                0.758464       0.579244

                          8       1   11px               0.991036       1.409457
                          8       1   11py               0.991036       1.409457
                          8       1   11pz               0.991036       1.409457

                          9       1   15dx2              1.286053       2.556305
                          9       1   15dxy              1.286053       4.427650
                          9       1   15dxz              1.286053       4.427650
                          9       1   15dy2              1.286053       2.556305
                          9       1   15dyz              1.286053       4.427650
                          9       1   15dz2              1.286053       2.556305

                         10       1    4s                1.357095       0.896123

                         11       1   12px               1.404875       2.180155
                         11       1   12py               1.404875       2.180155
                         11       1   12pz               1.404875       2.180155

                         12       1   13px               1.991527       3.372273
                         12       1   13py               1.991527       3.372273
                         12       1   13pz               1.991527       3.372273

                         13       1    5s                2.428204       1.386354

                         14       1    6s                4.344704       2.144768

                         15       1    7s                7.773833       3.318077

       Atomic covalent radius [Angstrom]:                                  0.320

       Atomic van der Waals radius [Angstrom]:                             1.090

     AE Potential information for                                            ALL

       Description:                                       All-electron potential
                                          Krack, Parrinello, PCCP 2, 2105 (2000)

       Gaussian exponent of the core charge distribution:              12.500000
       Electronic configuration (s p d ...):                           1   0   0


 MOLECULE KIND INFORMATION


 All atoms are their own molecule, skipping detailed information


 TOTAL NUMBERS AND MAXIMUM NUMBERS

  Total number of            - Atomic kinds:                                   3
                             - Atoms:                                          4
                             - Shell sets:                                     7
[...]
 tddfpt                               1  4.0    0.000    0.000  121.055  121.057
 tddfpt_energies                      1  5.0    0.000    0.000  121.007  121.008
 tddfpt_davidson_solver               1  6.0    0.000    0.001  119.935  119.937
 tddfpt_compute_Aop_evects            6  7.0    0.000    0.000  118.114  118.116
 fhxc_kernel                          6  8.0    0.005    0.006   95.551   95.553
 fft_wrap_pw1pw2                   2436 11.5    0.043    0.056   38.510   38.987
 fft_wrap_pw1pw2_250               1704 12.5    1.100    1.461   36.245   36.734
 fft3d_ps                          2436 13.5    5.991    7.799   34.322   34.699
 tddfpt_apply_coulomb               120  9.0    0.002    0.002   29.623   29.841
 mp_alltoall_z22v                  2436 15.5   24.798   26.783   24.798   26.783
 qs_rho_update_rho_low              123  8.9    0.002    0.002   26.468   26.470
 calculate_rho_elec                 123  9.9    0.121    0.153   26.380   26.381
 pw_poisson_solve                   121 10.0    0.281    0.341   23.232   23.446
 tddfpt_apply_hfx                     6  8.0    0.001    0.002   21.705   21.706
 integrate_four_center              241 10.0    8.964   18.680   21.402   21.457
 tddfpt_apply_xc_analytic           120  9.0    0.133    0.206   20.098   20.276
 mp_sync                           1260 11.7   10.754   19.700   10.754   19.700
 tddft_hfx_matrix                   240  9.0    0.002    0.005   18.916   18.965
 xc_pw_derive                       729 11.0    0.005    0.006   16.353   16.943
 x_to_yz                            852 14.1    0.907    1.291   14.055   14.603
 density_rs2pw                      123 10.9    0.005    0.006   13.436   14.110
 grid_collocate_task_list           123 10.9   12.458   13.506   12.458   13.506
 yz_to_x                            852 15.0    0.517    0.737   11.954   13.242
 ps_wavelet_solve                   121 11.0    5.290    6.830   11.936   12.159
 xc_calc_2nd_deriv_analytical       600 10.0    0.583    0.805   11.632   11.711
 integrate_v_rspace                 121  9.0    0.004    0.007   11.309   11.329
 xc_pw_divergence                   121 11.0    0.002    0.003   10.758   11.161
 transfer_rs2pw                     616 11.7    0.017    0.021   10.258   10.890
 potential_pw2rs                    121 10.0    0.007    0.008   10.765   10.791
 transfer_pw2rs                     606 11.0    0.010    0.016   10.172   10.388
 mp_waitany                       38692 13.2    9.186   10.184    9.186   10.184
 mp_alltoall_d54                    121 12.0    3.167    7.855    3.167    7.855
 prepare_gapw_den                   122  9.0    0.002    0.002    7.581    7.627
 transfer_rs2pw_250                 247 12.4    2.040    2.237    6.019    6.723
 transfer_pw2rs_250                 243 12.0    1.998    2.312    6.219    6.584
 put_rho0_on_grid                   122 10.0    0.125    0.163    6.085    6.132
 cp_dbcsr_sm_fm_multiply            767  8.5    0.009    0.011    5.128    5.314
 mp_alltoall_d11v                 10119 11.8    4.699    5.114    4.699    5.114
 dbcsr_complete_redistribute       2414 10.6    0.054    0.086    4.130    4.302
 mp_alltoall_d45                    122 12.0    3.513    4.252    3.513    4.252
 integrate_vhg0_rspace              121 10.0    0.079    0.114    4.040    4.043
 scf_env_do_scf                       1  3.0    0.000    0.000    3.788    3.788
 init_scf_loop                        1  4.0    0.000    0.000    3.512    3.512
 qs_ks_update_qs_env                  2  5.0    0.000    0.000    3.479    3.480
 rebuild_ks_matrix                    1  6.0    0.000    0.000    3.478    3.478
 qs_ks_build_kohn_sham_matrix         1  7.0    0.001    0.001    3.478    3.478
 copy_fm_to_dbcsr                  1616  9.6    0.004    0.005    2.877    3.046
 calculate_xc_2nd_deriv_atom        120  9.0    0.023    0.373    0.048    2.875
 mp_waitall_1                    336586 13.3    2.186    2.822    2.186    2.822
 hfx_ks_matrix                        1  8.0    0.000    0.000    2.488    2.498
 copy_dbcsr_to_fm                   796  9.4    0.005    0.006    2.400    2.436
 gaVxcgb_GC                         242 10.0    0.009    2.341    0.009    2.341
 transfer_rs2pw_30                  123 12.9    0.828    0.939    1.981    2.069
 rs_grid_zero                       609 12.2    1.878    2.061    1.878    2.061
 transfer_pw2rs_90                  121 12.0    0.310    0.495    1.767    2.001
 mp_alltoall_i11v                  8039 11.5    1.998    2.000    1.998    2.000
 transfer_rs2pw_90                  123 12.9    0.381    0.541    1.744    1.993
 transfer_pw2rs_30                  121 12.0    0.570    0.626    1.683    1.821
 mp_sendrecv_dv                   62730 13.9    1.459    1.638    1.459    1.638
 cp2k_distribution_to_z_slices      121 11.0    0.390    0.449    1.430    1.577
 fft_wrap_pw1pw2_90                 244 12.5    0.045    0.075    1.374    1.460
 mp_alltoall_z11v                   732 15.5    1.376    1.453    1.376    1.453
 calculate_rho_atom                 244 10.0    0.427    1.447    0.427    1.447
 pw_derive                         1092 12.0    1.217    1.405    1.217    1.405
 pw_copy                           1580 11.1    1.122    1.374    1.122    1.374
 mp_sum_d                          1935  7.4    0.942    1.374    0.942    1.374
 mp_sum_dv                         9448  9.0    1.248    1.356    1.248    1.356
 pw_gather_p                       1221 14.0    1.111    1.310    1.111    1.310
 integrate_four_center_main         241 11.0    0.031    0.601    0.039    1.247
 pw_scatter_p                      1215 13.1    1.054    1.240    1.054    1.240
 dbcsr_desymmetrize_deep            797 10.4    0.011    0.012    1.105    1.115
 tddfpt_orthonormalize_psi1_psi       7  6.9    0.005    0.005    0.999    1.094
 parallel_gemm_fm                  1022  8.3    0.001    0.001    0.829    1.082
 parallel_gemm_fm_cosma            1022  9.3    0.829    1.081    0.829    1.081
 dbcsr_multiply_generic            1028 10.4    0.022    0.038    1.032    1.042
 mp_alltoall_i22                   3211 11.5    0.779    0.957    0.779    0.957
 tddfpt_apply_energy_diff             6  8.0    0.000    0.000    0.857    0.857
 xz_to_yz                           369 14.9    0.057    0.095    0.778    0.824
 cp_dbcsr_sm_fm_multiply_core       767  9.5    0.001    0.001    0.794    0.804
 powell_optimize                 426961 11.0    0.607    0.787    0.607    0.787
 yz_to_xz                           363 14.0    0.063    0.077    0.728    0.772
 calc_screening_functions             1 10.0    0.329    0.374    0.675    0.762
 tddfpt_compute_residual_vects        5  7.0    0.000    0.000    0.752    0.759
 pw_zero                           1572 10.6    0.571    0.758    0.571    0.758
 pw_poisson_set                     122 10.9    0.002    0.002    0.716    0.754
 pw_copy_to_array                  1221 14.0    0.513    0.746    0.513    0.746
 mp_sum_dm                          759 10.9    0.584    0.733    0.584    0.733
 cp_dbcsr_plus_fm_fm_t              121  9.0    0.001    0.001    0.678    0.680
 pw_axpy                           1339 11.3    0.546    0.670    0.546    0.670
 integrate_four_center_bin        20434 12.0    0.008    0.645    0.008    0.645
 transfer_pw2rs_10                  121 12.0    0.148    0.169    0.493    0.570
 rs_gather_matrices                 121 10.0    0.001    0.004    0.523    0.560
 calc_pair_dist_radii                 1 10.0    0.209    0.235    0.471    0.555
 mp_rank_compare                   2436 14.5    0.528    0.555    0.528    0.555
 fft_wrap_pw1pw2_30                 244 12.5    0.006    0.007    0.507    0.550
 hybrid_alltoall_any               2853 13.6    0.013    0.015    0.538    0.545
 transfer_rs2pw_10                  123 12.9    0.191    0.232    0.497    0.544
 Vh_1c_gg_integrals                 121 10.0    0.010    0.226    0.411    0.527
 pw_copy_from_array                1215 13.1    0.314    0.520    0.314    0.520
 mp_sum_l                          4025 10.3    0.462    0.481    0.462    0.481
 tddfpt_print_nto_analysis            1  6.0    0.001    0.002    0.439    0.452
 init_scf_run                         1  3.0    0.000    0.000    0.426    0.426
 scf_env_initial_rho_setup            1  4.0    0.000    0.000    0.426    0.426
 grid_integrate_task_list           121 10.0    0.017    0.415    0.017    0.415
 prepare_dr1dr                      600 11.0    0.231    0.393    0.231    0.393
 fft_wrap_pw1pw2_10                 244 12.5    0.002    0.003    0.341    0.382
 mp_max_i                           612  3.7    0.244    0.379    0.244    0.379
 pw_integral_ab_c1d_c1d_gs          121 11.0    0.278    0.302    0.333    0.366
 mp_isendrecv_dv                 184620 12.3    0.132    0.365    0.132    0.365
 multiply_cannon                   1028 11.4    0.071    0.074    0.356    0.365
 make_m2s                          2056 11.4    0.013    0.015    0.327    0.338
 tddfpt_construct_ground_state_       1  6.0    0.000    0.000    0.328    0.328
 cp_fm_trace_a1b1t1_aa             7470  8.0    0.013    0.026    0.254    0.318
 mp_isend_dm3                      5380 13.3    0.152    0.314    0.152    0.314
 make_images                       2056 12.4    0.051    0.060    0.301    0.312
 pw_poisson_rebuild                 121 11.0    0.000    0.000    0.268    0.276
 ps_wavelet_create                    1 10.0    0.000    0.000    0.268    0.276
 RS_z_slice_distribution              1 11.0    0.175    0.201    0.268    0.276
 scf_env_do_scf_inner_loop            1  4.0    0.000    0.000    0.267    0.274
 integrate_four_center_getP         241 11.0    0.043    0.049    0.222    0.239
 multiply_cannon_loop              1028 12.4    0.043    0.044    0.226    0.238
 tddfpt_orthogonalize_psi1_psi0       7  6.9    0.000    0.000    0.124    0.213
 integrate_four_center_load         241 11.0    0.000    0.000    0.187    0.206
 hfx_load_balance                     1 11.0    0.000    0.002    0.187    0.206
 make_images_sizes                 2056 13.4    0.001    0.002    0.194    0.203
 mp_alltoall_i44                   2056 14.4    0.193    0.201    0.193    0.201
 integrate_four_center_dist_KS      241 11.0    0.043    0.051    0.191    0.193
 hfx_load_balance_range               1 12.0    0.000    0.000    0.173    0.191
 xc_rho_set_and_dset_create           2  9.0    0.007    0.010    0.167    0.185
 sum_up_and_integrate                 1  8.0    0.000    0.000    0.165    0.173
 qs_vxc_create                        1  8.0    0.000    0.000    0.167    0.167
 xc_vxc_pw_create                     1  9.0    0.002    0.003    0.167    0.167
 cube_transpose_2                   369 14.9    0.021    0.026    0.122    0.166
 xc_2nd_deriv_of_r                  480 10.0    0.000    0.021    0.001    0.163
 qs_energies_init_hamiltonians        1  3.0    0.000    0.000    0.161    0.161
 cube_transpose_1                   363 14.0    0.017    0.022    0.130    0.155
 mp_cart_sub                       1597 11.4    0.149    0.152    0.149    0.152
 xc_functional_eval                 486 10.5    0.000    0.001    0.009    0.137
 pbe_lda_eval                       486 11.5    0.009    0.136    0.009    0.136
 scale_and_distribute               242 12.0    0.060    0.124    0.060    0.124
 create_kernel_env                    1  6.0    0.000    0.000    0.095    0.104
 xc_prep_2nd_deriv                    1  7.0    0.000    0.000    0.095    0.104
 dbcsr_finalize                    4955 11.4    0.011    0.014    0.075    0.103
 mp_isend_dv                      66193 13.8    0.079    0.102    0.079    0.102
 mp_cart_create                    1043 11.1    0.089    0.097    0.090    0.099
 calculate_rho0_atom                366 10.0    0.082    0.091    0.082    0.091
 qs_init_subsys                       1  2.0    0.001    0.001    0.088    0.088
 create_qs_kind_set                   1  2.0    0.000    0.000    0.088    0.088
 read_qs_kind                         3  3.0    0.032    0.040    0.088    0.088
 calculate_rho_atom_coeff           123  9.9    0.013    0.024    0.087    0.087
 rs_scatter_matrices                123 10.9    0.001    0.002    0.085    0.086
 qs_env_setup                         1  3.0    0.000    0.000    0.084    0.085
 qs_env_rebuild_pw_env                2  3.5    0.000    0.000    0.083    0.084
 calculate_first_density_matrix       1  5.0    0.000    0.019    0.084    0.084
 pw_env_rebuild                       1  5.0    0.000    0.000    0.083    0.084
 qs_env_update_s_mstruct              1  4.0    0.000    0.000    0.081    0.082
 build_core_hamiltonian_matrix        1  4.0    0.000    0.000    0.079    0.079
 dbcsr_merge_all                   4117 12.5    0.036    0.066    0.051    0.079
 overlap_condnum                      1  5.0    0.000    0.000    0.079    0.079
 calculate_rho_core                   1  5.0    0.001    0.001    0.074    0.074
 pw_scale                           244  9.5    0.048    0.072    0.048    0.072
 cp_fm_geeig                         20  7.0    0.001    0.001    0.069    0.070
 update_ks_atom                     121  9.0    0.010    0.018    0.056    0.069
 pw_grid_setup                        4  6.0    0.000    0.000    0.067    0.067
 pw_grid_setup_internal               4  7.0    0.001    0.001    0.066    0.067
 scf_post_calculation_gpw             1  3.0    0.000    0.000    0.060    0.060
 write_available_results              1  4.0    0.000    0.000    0.059    0.060
 write_mo_free_results                1  5.0    0.002    0.002    0.059    0.059
 cp_fm_diag_elpa                     28  8.0    0.000    0.000    0.058    0.059
 mp_bcast_dm                        487 10.0    0.046    0.058    0.046    0.058
 multiply_cannon_metrocomm1       16448 13.4    0.022    0.023    0.050    0.057
 arnoldi_conjugate_gradient           5  6.0    0.001    0.002    0.056    0.056
 tddfpt_is_nonorthogonal_psi1_p       5  7.0    0.000    0.000    0.056    0.056
 parser_read_line                 12904  4.0    0.002    0.002    0.056    0.056
 cp_fm_diag_elpa_base                28  9.0    0.051    0.055    0.052    0.055
 cp_fm_syevd                         20  7.0    0.000    0.000    0.052    0.054
 parser_read_line_low                22  5.0    0.001    0.012    0.053    0.054
 cp_fm_write_unformatted             21  7.0    0.053    0.054    0.053    0.054
 multiply_cannon_metrocomm3       16448 13.4    0.022    0.023    0.041    0.053
 dbcsr_create_new                 15572 11.5    0.033    0.042    0.043    0.053
 broadcast_input_information         22  6.0    0.007    0.007    0.052    0.053
 multiply_cannon_metrocomm2       15420 13.4    0.024    0.027    0.042    0.051
 tddfpt_write_restart                 1  6.0    0.000    0.043    0.044    0.051
 mp_irecv_dv                      65174 13.8    0.029    0.050    0.029    0.050
 multiply_cannon_metrocomm4       15420 13.4    0.023    0.025    0.040    0.049
 make_basis_sm                        1  6.0    0.000    0.000    0.049    0.049
 mp_sum_iv                          412  7.2    0.030    0.045    0.030    0.045
 dbcsr_sym_matrix_vector_mult       544  7.5    0.004    0.004    0.029    0.043
 cp_fm_maxabsval                    100  8.0    0.000    0.000    0.033    0.043
 mp_max_d                           101  8.9    0.033    0.043    0.033    0.043
 make_images_data                  2056 13.4    0.013    0.017    0.030    0.042
 mp_irecv_dm3                      5380 13.3    0.018    0.042    0.018    0.042
 mp_allgather_i34                  1028 12.4    0.037    0.041    0.037    0.041
 mp_bcast_b_src                      32  9.5    0.038    0.038    0.038    0.038
 tddfpt_print_excitation_analys       1  6.0    0.000    0.004    0.024    0.037
 pw_grid_sort                         4  8.0    0.024    0.026    0.034    0.037
 cp_fm_redistribute_end              48  8.6    0.023    0.035    0.023    0.035
 copy_fm_to_dbcsr_bc               1616 10.6    0.009    0.011    0.028    0.035
 mp_bcast_i_src                      93  7.0    0.026    0.035    0.026    0.035
 get_fft_scratch                   2437 14.5    0.009    0.018    0.025    0.034
 calculate_hirshfeld_normalizat       1  6.0    0.001    0.003    0.029    0.030
 tddfpt_dipole_operator               1  5.0    0.000    0.000    0.027    0.028
 hirshfeld_integration                1  6.0    0.001    0.003    0.027    0.028
 cp_fm_redistribute_start            48  8.6    0.013    0.014    0.024    0.027
 mp_cart_rank                    124720 11.5    0.020    0.026    0.020    0.026
 prepare_preconditioner               1  5.0    0.000    0.000    0.026    0.026
 make_preconditioner                  1  6.0    0.000    0.000    0.026    0.026
 tddfpt_compute_ritz_vects            6  7.0    0.002    0.002    0.024    0.024
 cp_fm_syevd_base                    20  8.0    0.011    0.023    0.011    0.023
 calculate_vxc_atom                   1  8.0    0.000    0.002    0.022    0.022
 mp_bcast_am_src                     22  7.0    0.018    0.021    0.019    0.022
 qs_scf_new_mos                       1  5.0    0.000    0.000    0.022    0.022
 qs_scf_loop_do_ot                    1  6.0    0.000    0.000    0.022    0.022
 dbcsr_iterator_start             22631 11.5    0.015    0.016    0.018    0.022
 ot_scf_mini                          1  7.0    0.000    0.000    0.021    0.021
 mp_maxloc_dv                      1317  1.0    0.020    0.020    0.020    0.020
 mp_isend_iv                      34948 14.4    0.012    0.019    0.012    0.019
 write_mo_set_to_restart              1  5.0    0.000    0.016    0.012    0.019
 multiply_cannon_multrec          16448 13.4    0.008    0.017    0.011    0.019
 dbcsr_rep_row_to_rep_col_vec       544  8.5    0.001    0.001    0.006    0.019
 dbcsr_data_new                   59866 12.5    0.016    0.019    0.016    0.019
 dbcsr_copy                        4317  9.6    0.006    0.009    0.015    0.019
 read_mo_set_from_restart             1  6.0    0.000    0.018    0.012    0.018
 cp_fm_cholesky_decompose            23  7.9    0.017    0.018    0.017    0.018
 make_full_single_inverse             1  7.0    0.000    0.000    0.018    0.018
 dbcsr_destroy                    14659 10.9    0.010    0.011    0.016    0.017
 dbcsr_work_create                 6970 12.2    0.010    0.012    0.015    0.017
 dbcsr_data_release               93599 12.7    0.015    0.017    0.015    0.017
 dbcsr_col_vec_to_rep_row           546  8.5    0.002    0.002    0.006    0.017
 ot_mini                              1  8.0    0.000    0.000    0.015    0.015
 pw_pool_create_pw                 4278 11.1    0.008    0.010    0.013    0.014
 dbcsr_make_untransposed_blocks    1633 11.5    0.004    0.011    0.007    0.014
 dbcsr_iterator_stop              22631 11.5    0.010    0.011    0.013    0.014
 qs_ot_get_derivative                 1  9.0    0.000    0.000    0.014    0.014
 dbcsr_add_d                        674  7.0    0.000    0.000    0.002    0.014
 tree_to_linear_d                  2414 13.6    0.010    0.013    0.010    0.013
 dbcsr_add_anytype                  674  8.0    0.000    0.002    0.002    0.013
 -------------------------------------------------------------------------------

 The number of warnings for this run is : 1
 
 -------------------------------------------------------------------------------
  **** **** ******  **  PROGRAM ENDED AT                 2025-06-04 18:39:42.654
 ***** ** ***  *** **   PROGRAM RAN ON                                  n2cn1105
 **    ****   ******    PROGRAM RAN BY                                  metdyn02
 ***** **    ** ** **   PROGRAM PROCESS ID                               2018267
  **** **  *******  **  PROGRAM STOPPED IN /scratch/hpc-prf-metdyn/metdyn02_Remi
                                           /10_MOL/05_MOL/W4-11+ALK/li_na_h2/SZV
                                           SR/TDDFT/RILIM
