 DBCSR| CPU Multiplication driver                                           BLAS (U)
 DBCSR| Multrec recursion limit                                              512 (U)
 DBCSR| Multiplication stack size                                           1000 (D)
 DBCSR| Maximum elements for images                                    UNLIMITED (U)
 DBCSR| Multiplicative factor virtual images                                   1 (U)
 DBCSR| Use multiplication densification                                       T (D)
 DBCSR| Multiplication size stacks                                             3 (U)
 DBCSR| Use memory pool for CPU allocation                                     F (U)
 DBCSR| Number of 3D layers                                               SINGLE (U)
 DBCSR| Use MPI memory allocation                                              F (U)
 DBCSR| Use RMA algorithm                                                      F (U)
 DBCSR| Use Communication thread                                               T (U)
 DBCSR| Communication thread load                                             75 (D)
 DBCSR| MPI: My process id                                                     0
 DBCSR| MPI: Number of processes                                              96
 DBCSR| OMP: Current number of threads                                         4
 DBCSR| OMP: Max number of threads                                             4
 DBCSR| Split modifier for TAS multiplication algorithm                  1.0E+00 (U)


  **** **** ******  **  PROGRAM STARTED AT               2025-04-12 04:30:41.503
 ***** ** ***  *** **   PROGRAM STARTED ON                          i01r09c01s07
 **    ****   ******    PROGRAM STARTED BY                               di38fab
 ***** **    ** ** **   PROGRAM PROCESS ID                               1162028
  **** **  *******  **  PROGRAM STARTED IN /hppfs/scratch/04/di38fab/05_MOL/W4-1
                                           1+ALK/bh/aug-cc-pVTZ/TDDFT

 CP2K| version string:                 CP2K version 2025.1 (Development Version)
 CP2K| source code revision number:                             unknown revision
 CP2K| cp2kflags: omp libint fftw3 libxc parallel scalapack max_contr=4         
 CP2K| is freely available from                            https://www.cp2k.org/
 CP2K| Program compiled at                         Thu Apr 10 16:20:23 CEST 2025
 CP2K| Program compiled on                                               login01
 CP2K| Program compiled for                                        Supermuc-foss
 CP2K| Data directory path                  /hppfs/work/pn36zo/di38fab/cp2k/data
 CP2K| Input file name                                                    GW.inp

 GLOBAL| Force Environment number                                              1
 GLOBAL| Basis set file name            /hppfs/scratch/04/di38fab/04_TMD/BASIS_A
 GLOBAL| Potential file name            /hppfs/work/pn36zo/di38fab/cp2k/data/ALL
 GLOBAL| MM Potential file name                                     MM_POTENTIAL
 GLOBAL| Coordinate file name                                      __STD_INPUT__
 GLOBAL| Method name                                                        CP2K
 GLOBAL| Project name                                                       MoS2
 GLOBAL| Run type                                                         ENERGY
 GLOBAL| FFT library                                                       FFTW3
 GLOBAL| Diagonalization library                                       ScaLAPACK
 GLOBAL| DGEMM library                                                      BLAS
 GLOBAL| Orthonormality check for eigenvectors                          DISABLED
 GLOBAL| Matrix multiplication library                                 ScaLAPACK
 GLOBAL| All-to-all communication in single precision                          F
 GLOBAL| FFTs using library dependent lengths                                  F
 GLOBAL| Grid backend                                                       AUTO
 GLOBAL| Global print level                                               MEDIUM
 GLOBAL| MPI I/O enabled                                                       T
 GLOBAL| Total number of message passing processes                            96
 GLOBAL| Number of threads for this process                                    4
 GLOBAL| This output is from process                                           0
 GLOBAL| OpenMP stack size per thread (OMP_STACKSIZE)                    default
 GLOBAL| CPU model name             Intel(R) Xeon(R) Platinum 8174 CPU @ 3.10GHz

 MEMORY| system memory details [Kb]
 MEMORY|                        rank 0           min           max       average
 MEMORY| MemTotal             98436664      98436648      98436868      98436687
 MEMORY| MemFree              83901032      83748044      84110120      84012163
 MEMORY| Buffers                     0             0             0             0
 MEMORY| Cached                2809200       2408232       2809472       2516651
 MEMORY| Slab                  1234460       1220376       1261816       1243227
 MEMORY| SReclaimable           277872        268096        278652        274486
 MEMORY| MemLikelyFree        86988104      86722632      86988104      86803301


 *** Fundamental physical constants (SI units) ***

 *** Literature: B. J. Mohr and B. N. Taylor,
 ***             CODATA recommended values of the fundamental physical
 ***             constants: 2006, Web Version 5.1
 ***             http://physics.nist.gov/constants

 Speed of light in vacuum [m/s]                             2.99792458000000E+08
 Magnetic constant or permeability of vacuum [N/A**2]       1.25663706143592E-06
 Electric constant or permittivity of vacuum [F/m]          8.85418781762039E-12
 Planck constant (h) [J*s]                                  6.62606896000000E-34
 Planck constant (h-bar) [J*s]                              1.05457162825177E-34
 Elementary charge [C]                                      1.60217648700000E-19
 Electron mass [kg]                                         9.10938215000000E-31
 Electron g factor [ ]                                     -2.00231930436220E+00
 Proton mass [kg]                                           1.67262163700000E-27
 Fine-structure constant                                    7.29735253760000E-03
 Rydberg constant [1/m]                                     1.09737315685270E+07
 Avogadro constant [1/mol]                                  6.02214179000000E+23
 Boltzmann constant [J/K]                                   1.38065040000000E-23
 Atomic mass unit [kg]                                      1.66053878200000E-27
 Bohr radius [m]                                            5.29177208590000E-11

 *** Conversion factors ***

 [u] -> [a.u.]                                              1.82288848426455E+03
 [Angstrom] -> [Bohr] = [a.u.]                              1.88972613288564E+00
 [a.u.] = [Bohr] -> [Angstrom]                              5.29177208590000E-01
 [a.u.] -> [s]                                              2.41888432650478E-17
 [a.u.] -> [fs]                                             2.41888432650478E-02
 [a.u.] -> [J]                                              4.35974393937059E-18
 [a.u.] -> [N]                                              8.23872205491840E-08
 [a.u.] -> [K]                                              3.15774647902944E+05
 [a.u.] -> [kJ/mol]                                         2.62549961709828E+03
 [a.u.] -> [kcal/mol]                                       6.27509468713739E+02
 [a.u.] -> [Pa]                                             2.94210107994716E+13
 [a.u.] -> [bar]                                            2.94210107994716E+08
 [a.u.] -> [atm]                                            2.90362800883016E+08
 [a.u.] -> [eV]                                             2.72113838565563E+01
 [a.u.] -> [Hz]                                             6.57968392072181E+15
 [a.u.] -> [1/cm] (wave numbers)                            2.19474631370540E+05
 [a.u./Bohr**2] -> [1/cm]                                   5.14048714338585E+03
 

 CELL_TOP| Volume [angstrom^3]:                                     27000.000000
 CELL_TOP| Vector a [angstrom    30.000     0.000     0.000   |a| =    30.000000
 CELL_TOP| Vector b [angstrom     0.000    30.000     0.000   |b| =    30.000000
 CELL_TOP| Vector c [angstrom     0.000     0.000    30.000   |c| =    30.000000
 CELL_TOP| Angle (b,c), alpha [degree]:                                90.000000
 CELL_TOP| Angle (a,c), beta  [degree]:                                90.000000
 CELL_TOP| Angle (a,b), gamma [degree]:                                90.000000
 CELL_TOP| Numerically orthorhombic:                                         YES
 CELL_TOP| Periodicity                                                      NONE

 GENERATE|  Preliminary Number of Bonds generated:                             0
 GENERATE|  Achieved consistency in connectivity generation.

 CELL| Volume [angstrom^3]:                                         27000.000000
 CELL| Vector a [angstrom]:      30.000     0.000     0.000   |a| =    30.000000
 CELL| Vector b [angstrom]:       0.000    30.000     0.000   |b| =    30.000000
 CELL| Vector c [angstrom]:       0.000     0.000    30.000   |c| =    30.000000
 CELL| Angle (b,c), alpha [degree]:                                    90.000000
 CELL| Angle (a,c), beta  [degree]:                                    90.000000
 CELL| Angle (a,b), gamma [degree]:                                    90.000000
 CELL| Numerically orthorhombic:                                             YES
 CELL| Periodicity                                                          NONE

 CELL_REF| Volume [angstrom^3]:                                     27000.000000
 CELL_REF| Vector a [angstrom    30.000     0.000     0.000   |a| =    30.000000
 CELL_REF| Vector b [angstrom     0.000    30.000     0.000   |b| =    30.000000
 CELL_REF| Vector c [angstrom     0.000     0.000    30.000   |c| =    30.000000
 CELL_REF| Angle (b,c), alpha [degree]:                                90.000000
 CELL_REF| Angle (a,c), beta  [degree]:                                90.000000
 CELL_REF| Angle (a,b), gamma [degree]:                                90.000000
 CELL_REF| Numerically orthorhombic:                                         YES
 CELL_REF| Periodicity                                                      NONE

 *******************************************************************************
 *******************************************************************************
 **                                                                           **
 **     #####                         ##              ##                      **
 **    ##   ##            ##          ##              ##                      **
 **   ##     ##                       ##            ######                    **
 **   ##     ##  ##   ##  ##   #####  ##  ##   ####   ##    #####    #####    **
 **   ##     ##  ##   ##  ##  ##      ## ##   ##      ##   ##   ##  ##   ##   **
 **   ##  ## ##  ##   ##  ##  ##      ####     ###    ##   ######   ######    **
 **    ##  ###   ##   ##  ##  ##      ## ##      ##   ##   ##       ##        **
 **     #######   #####   ##   #####  ##  ##  ####    ##    #####   ##        **
 **           ##                                                    ##        **
 **                                                                           **
 **                                                ... make the atoms dance   **
 **                                                                           **
 **            Copyright (C) by CP2K developers group (2000-2025)             **
 **                      J. Chem. Phys. 152, 194103 (2020)                    **
 **                                                                           **
 *******************************************************************************

 DFT| Spin restricted Kohn-Sham (RKS) calculation                            RKS
 DFT| Multiplicity                                                             1
 DFT| Number of spin states                                                    1
 DFT| Charge                                                                   0
 DFT| Self-interaction correction (SIC)                                       NO
 DFT| Cutoffs: density                                              1.000000E-10
 DFT|          gradient                                             1.000000E-10
 DFT|          tau                                                  1.000000E-10
 DFT|          cutoff_smoothing_range                               0.000000E+00
 DFT| XC density smoothing                                                  NONE
 DFT| XC derivatives                                                          PW

 FUNCTIONAL| PBE:
 FUNCTIONAL| J.P.Perdew, K.Burke, M.Ernzerhof, Phys. Rev. Letter, vol. 77, n 18,
 FUNCTIONAL|  pp. 3865-3868, (1996)sx=0.750sc=1.000{spin unpolarized}           


 QS| Method:                                                                GAPW
 QS| Density plane wave grid type                        NON-SPHERICAL FULLSPACE
 QS| Number of grid levels:                                                    4
 QS| Density cutoff [a.u.]:                                                250.0
 QS| Multi grid cutoff [a.u.]: 1) grid level                               250.0
 QS|                           2) grid level                                83.3
 QS|                           3) grid level                                27.8
 QS|                           4) grid level                                 9.3
 QS| Grid level progression factor:                                          3.0
 QS| Relative density cutoff [a.u.]:                                        50.0
 QS| Interaction thresholds: eps_pgf_orb:                                1.0E-12
 QS|                         eps_filter_matrix:                          0.0E+00
 QS|                         eps_core_charge:                            1.0E-14
 QS|                         eps_rho_gspace:                             1.0E-12
 QS|                         eps_rho_rspace:                             1.0E-12
 QS|                         eps_gvg_rspace:                             1.0E-06
 QS|                         eps_ppl:                                    1.0E-02
 QS|                         eps_ppnl:                                   1.0E-08
 QS| GAPW|      One center basis from orbital basis primitives
 QS| GAPW|                   eps_fit:                                    1.0E-04
 QS| GAPW|                   eps_iso:                                    1.0E-12
 QS| GAPW|                   eps_svd:                                    1.0E-08
 QS| GAPW|                   eps_cpc:                                    1.0E-12
 QS| GAPW|   atom-r-grid: quadrature:                                     GC_LOG
 QS| GAPW|      atom-s-grid:  max l :                                          6
 QS| GAPW|      max_l_rho0 :                                                   2


 ATOMIC KIND INFORMATION

  1. Atomic kind: B                                     Number of atoms:       1

     Orbital Basis Set                                               aug-cc-pVTZ

       Number of orbital shell sets:                                           8
       Number of orbital shells:                                              14
       Number of primitive Cartesian functions:                               22
       Number of Cartesian basis functions:                                   55
       Number of spherical basis functions:                                   46
       Norm type:                                                              2

       Normalised Cartesian orbitals:

                        Set   Shell   Orbital            Exponent    Coefficient

                          1       1    1px               0.020960       0.011368
                          1       1    1py               0.020960       0.011368
                          1       1    1pz               0.020960       0.011368

                          2       1    1s                0.029140       0.050266

                          3       1    1dx2              0.060400       0.012112
                          3       1    1dxy              0.060400       0.020979
                          3       1    1dxz              0.060400       0.020979
                          3       1    1dy2              0.060400       0.012112
                          3       1    1dyz              0.060400       0.020979
                          3       1    1dz2              0.060400       0.012112

                          4       1    1px              12.050000       0.000000
                                                         2.613000       0.000000
                                                         0.747500       0.000000
                                                         0.238500       0.237575
                                                         0.076980       0.000000
                          4       1    1py              12.050000       0.000000
                                                         2.613000       0.000000
                                                         0.747500       0.000000
                                                         0.238500       0.237575
                                                         0.076980       0.000000
                          4       1    1pz              12.050000       0.000000
                                                         2.613000       0.000000
                                                         0.747500       0.000000
                                                         0.238500       0.237575
                                                         0.076980       0.000000

                          4       2    2px              12.050000       0.419799
                                                         2.613000       0.378346
                                                         0.747500       0.274704
                                                         0.238500       0.119802
                                                         0.076980       0.020442
                          4       2    2py              12.050000       0.419799
                                                         2.613000       0.378346
                                                         0.747500       0.274704
                                                         0.238500       0.119802
                                                         0.076980       0.020442
                          4       2    2pz              12.050000       0.419799
                                                         2.613000       0.378346
                                                         0.747500       0.274704
                                                         0.238500       0.119802
                                                         0.076980       0.020442

                          4       3    3px              12.050000       0.000000
                                                         2.613000       0.000000
                                                         0.747500       0.000000
                                                         0.238500       0.000000
                                                         0.076980       0.057798
                          4       3    3py              12.050000       0.000000
                                                         2.613000       0.000000
                                                         0.747500       0.000000
                                                         0.238500       0.000000
                                                         0.076980       0.057798
                          4       3    3pz              12.050000       0.000000
                                                         2.613000       0.000000
                                                         0.747500       0.000000
                                                         0.238500       0.000000
                                                         0.076980       0.057798

                          5       1    1s             5473.000000       0.251693
                                                       820.900000       0.469014
                                                       186.800000       0.790419
                                                        52.830000       1.179298
                                                        17.080000       1.428459
                                                         5.999000       1.188585
                                                         2.208000       0.441446
                                                         0.587900       0.017636
                                                         0.241500      -0.002344
                                                         0.086100       0.000268

                          5       2    2s             5473.000000       0.000000
                                                       820.900000       0.000000
                                                       186.800000       0.000000
                                                        52.830000       0.000000
                                                        17.080000       0.000000
                                                         5.999000       0.000000
                                                         2.208000       0.000000
                                                         0.587900       0.478506
                                                         0.241500       0.000000
                                                         0.086100       0.000000

                          5       3    3s             5473.000000      -0.050792
                                                       820.900000      -0.094874
                                                       186.800000      -0.161476
                                                        52.830000      -0.246960
                                                        17.080000      -0.321186
                                                         5.999000      -0.325113
                                                         2.208000      -0.214071
                                                         0.587900       0.057472
                                                         0.241500       0.146329
                                                         0.086100       0.046561

                          5       4    4s             5473.000000       0.000000
                                                       820.900000       0.000000
                                                       186.800000       0.000000
                                                        52.830000       0.000000
                                                        17.080000       0.000000
                                                         5.999000       0.000000
                                                         2.208000       0.000000
                                                         0.587900       0.000000
                                                         0.241500       0.000000
                                                         0.086100       0.113282

                          6       1    1fx3              0.163000       0.024853
                          6       1    1fx2y             0.163000       0.055573
                          6       1    1fx2z             0.163000       0.055573
                          6       1    1fxy2             0.163000       0.055573
                          6       1    1fxyz             0.163000       0.096255
                          6       1    1fxz2             0.163000       0.055573
                          6       1    1fy3              0.163000       0.024853
                          6       1    1fy2z             0.163000       0.055573
                          6       1    1fyz2             0.163000       0.055573
                          6       1    1fz3              0.163000       0.024853

                          7       1    1dx2              0.661000       0.797558
                                                         0.199000       0.000000
                          7       1    1dxy              0.661000       1.381410
                                                         0.199000       0.000000
                          7       1    1dxz              0.661000       1.381410
                                                         0.199000       0.000000
                          7       1    1dy2              0.661000       0.797558
                                                         0.199000       0.000000
                          7       1    1dyz              0.661000       1.381410
                                                         0.199000       0.000000
                          7       1    1dz2              0.661000       0.797558
                                                         0.199000       0.000000

                          7       2    2dx2              0.661000       0.000000
                                                         0.199000       0.097589
                          7       2    2dxy              0.661000       0.000000
                                                         0.199000       0.169030
                          7       2    2dxz              0.661000       0.000000
                                                         0.199000       0.169030
                          7       2    2dy2              0.661000       0.000000
                                                         0.199000       0.097589
                          7       2    2dyz              0.661000       0.000000
                                                         0.199000       0.169030
                          7       2    2dz2              0.661000       0.000000
                                                         0.199000       0.097589

                          8       1    1fx3              0.490000       0.295730
                          8       1    1fx2y             0.490000       0.661273
                          8       1    1fx2z             0.490000       0.661273
                          8       1    1fxy2             0.490000       0.661273
                          8       1    1fxyz             0.490000       1.145358
                          8       1    1fxz2             0.490000       0.661273
                          8       1    1fy3              0.490000       0.295730
                          8       1    1fy2z             0.490000       0.661273
                          8       1    1fyz2             0.490000       0.661273
                          8       1    1fz3              0.490000       0.295730

     RI Auxiliary Basis Set                                    aug-cc-pVTZ-OPTRI

       Number of orbital shell sets:                                          18
       Number of orbital shells:                                              18
       Number of primitive Cartesian functions:                               18
       Number of Cartesian basis functions:                                  103
       Number of spherical basis functions:                                   78
       Norm type:                                                              2

       Normalised Cartesian orbitals:

                        Set   Shell   Orbital            Exponent    Coefficient

                          1       1    1px               0.040116       0.025591
                          1       1    1py               0.040116       0.025591
                          1       1    1pz               0.040116       0.025591

                          2       1    1s                0.046164       0.070980

                          3       1    1dx2              0.090864       0.024751
                          3       1    1dxy              0.090864       0.042870
                          3       1    1dxz              0.090864       0.042870
                          3       1    1dy2              0.090864       0.024751
                          3       1    1dyz              0.090864       0.042870
                          3       1    1dz2              0.090864       0.024751

                          4       1    1px               0.115608       0.096089
                          4       1    1py               0.115608       0.096089
                          4       1    1pz               0.115608       0.096089

                          5       1    1s                0.244788       0.248029

                          6       1    1fx3              0.270071       0.077407
                          6       1    1fx2y             0.270071       0.173087
                          6       1    1fx2z             0.270071       0.173087
                          6       1    1fxy2             0.270071       0.173087
                          6       1    1fxyz             0.270071       0.299796
                          6       1    1fxz2             0.270071       0.173087
                          6       1    1fy3              0.270071       0.077407
                          6       1    1fy2z             0.270071       0.173087
                          6       1    1fyz2             0.270071       0.173087
                          6       1    1fz3              0.270071       0.077407

                          7       1    1gx4              0.375331       0.075175
                          7       1    1gx3y             0.375331       0.198895
                          7       1    1gx3z             0.375331       0.198895
                          7       1    1gx2y2            0.375331       0.256773
                          7       1    1gx2yz            0.375331       0.444743
                          7       1    1gx2z2            0.375331       0.256773
                          7       1    1gxy3             0.375331       0.198895
                          7       1    1gxy2z            0.375331       0.444743
                          7       1    1gxyz2            0.375331       0.444743
                          7       1    1gxz3             0.375331       0.198895
                          7       1    1gy4              0.375331       0.075175
                          7       1    1gy3z             0.375331       0.198895
                          7       1    1gy2z2            0.375331       0.256773
                          7       1    1gyz3             0.375331       0.198895
                          7       1    1gz4              0.375331       0.075175

                          8       1    1dx2              0.393664       0.322017
                          8       1    1dxy              0.393664       0.557751
                          8       1    1dxz              0.393664       0.557751
                          8       1    1dy2              0.393664       0.322017
                          8       1    1dyz              0.393664       0.557751
                          8       1    1dz2              0.393664       0.322017

                          9       1    1px               0.419074       0.480622
                          9       1    1py               0.419074       0.480622
                          9       1    1pz               0.419074       0.480622

                         10       1    1px               0.752855       0.999607
                         10       1    1py               0.752855       0.999607
                         10       1    1pz               0.752855       0.999607

                         11       1    1fx3              0.878780       1.100740
                         11       1    1fx2y             0.878780       2.461330
                         11       1    1fx2z             0.878780       2.461330
                         11       1    1fxy2             0.878780       2.461330
                         11       1    1fxyz             0.878780       4.263148
                         11       1    1fxz2             0.878780       2.461330
                         11       1    1fy3              0.878780       1.100740
                         11       1    1fy2z             0.878780       2.461330
                         11       1    1fyz2             0.878780       2.461330
                         11       1    1fz3              0.878780       1.100740

                         12       1    1s                0.880079       0.647592

                         13       1    1gx4              1.022372       1.182660
                         13       1    1gx3y             1.022372       3.129025
                         13       1    1gx3z             1.022372       3.129025
                         13       1    1gx2y2            1.022372       4.039554
                         13       1    1gx2yz            1.022372       6.996713
                         13       1    1gx2z2            1.022372       4.039554
                         13       1    1gxy3             1.022372       3.129025
                         13       1    1gxy2z            1.022372       6.996713
                         13       1    1gxyz2            1.022372       6.996713
                         13       1    1gxz3             1.022372       3.129025
                         13       1    1gy4              1.022372       1.182660
                         13       1    1gy3z             1.022372       3.129025
                         13       1    1gy2z2            1.022372       4.039554
                         13       1    1gyz3             1.022372       3.129025
                         13       1    1gz4              1.022372       1.182660

                         14       1    1dx2              1.397498       2.956474
                         14       1    1dxy              1.397498       5.120763
                         14       1    1dxz              1.397498       5.120763
                         14       1    1dy2              1.397498       2.956474
                         14       1    1dyz              1.397498       5.120763
                         14       1    1dz2              1.397498       2.956474

                         15       1    1fx3              1.884032       6.122137
                         15       1    1fx2y             1.884032      13.689515
                         15       1    1fx2z             1.884032      13.689515
                         15       1    1fxy2             1.884032      13.689515
                         15       1    1fxyz             1.884032      23.710936
                         15       1    1fxz2             1.884032      13.689515
                         15       1    1fy3              1.884032       6.122137
                         15       1    1fy2z             1.884032      13.689515
                         15       1    1fyz2             1.884032      13.689515
                         15       1    1fz3              1.884032       6.122137

                         16       1    1s                2.267148       1.316801

                         17       1    1px               2.484142       4.445398
                         17       1    1py               2.484142       4.445398
                         17       1    1pz               2.484142       4.445398

                         18       1    1dx2              4.847375      26.064298
                         18       1    1dxy              4.847375      45.144689
                         18       1    1dxz              4.847375      45.144689
                         18       1    1dy2              4.847375      26.064298
                         18       1    1dyz              4.847375      45.144689
                         18       1    1dz2              4.847375      26.064298

       Atomic covalent radius [Angstrom]:                                  0.820

       Atomic van der Waals radius [Angstrom]:                             1.920

     The atoms of this atomic kind are PAW atoms (GAPW):
       Hard Gaussian function radius:                                      1.512
       Rho0 radius:                                                        1.512
       Maximum GTO radius used for PAW projector construction:            24.566

     GAPW Soft Basis Set                                        aug-cc-pVTZ_soft

       Number of orbital shell sets:                                           8
       Number of orbital shells:                                              14
       Number of primitive Cartesian functions:                               15
       Number of Cartesian basis functions:                                   55
       Number of spherical basis functions:                                   46
       Norm type:                                                              2

       Normalised Cartesian orbitals:

                        Set   Shell   Orbital            Exponent    Coefficient

                          1       1    1px               0.020960       0.011368
                          1       1    1py               0.020960       0.011368
                          1       1    1pz               0.020960       0.011368

                          2       1    1s                0.029140       0.050266

                          3       1    1dx2              0.060400       0.012112
                          3       1    1dxy              0.060400       0.020979
                          3       1    1dxz              0.060400       0.020979
                          3       1    1dy2              0.060400       0.012112
                          3       1    1dyz              0.060400       0.020979
                          3       1    1dz2              0.060400       0.012112

                          4       1    1px               2.613000       0.000000
                                                         0.747500       0.000000
                                                         0.238500       0.237575
                                                         0.076980       0.000000
                          4       1    1py               2.613000       0.000000
                                                         0.747500       0.000000
                                                         0.238500       0.237575
                                                         0.076980       0.000000
                          4       1    1pz               2.613000       0.000000
                                                         0.747500       0.000000
                                                         0.238500       0.237575
                                                         0.076980       0.000000

                          4       2    2px               2.613000       0.378346
                                                         0.747500       0.274704
                                                         0.238500       0.119802
                                                         0.076980       0.020442
                          4       2    2py               2.613000       0.378346
                                                         0.747500       0.274704
                                                         0.238500       0.119802
                                                         0.076980       0.020442
                          4       2    2pz               2.613000       0.378346
                                                         0.747500       0.274704
                                                         0.238500       0.119802
                                                         0.076980       0.020442

                          4       3    3px               2.613000       0.000000
                                                         0.747500       0.000000
                                                         0.238500       0.000000
                                                         0.076980       0.057798
                          4       3    3py               2.613000       0.000000
                                                         0.747500       0.000000
                                                         0.238500       0.000000
                                                         0.076980       0.057798
                          4       3    3pz               2.613000       0.000000
                                                         0.747500       0.000000
                                                         0.238500       0.000000
                                                         0.076980       0.057798

                          5       1    1s                2.208000       0.441446
                                                         0.587900       0.017636
                                                         0.241500      -0.002344
                                                         0.086100       0.000268

                          5       2    2s                2.208000       0.000000
                                                         0.587900       0.478506
                                                         0.241500       0.000000
                                                         0.086100       0.000000

                          5       3    3s                2.208000      -0.214071
                                                         0.587900       0.057472
                                                         0.241500       0.146329
                                                         0.086100       0.046561

                          5       4    4s                2.208000       0.000000
                                                         0.587900       0.000000
                                                         0.241500       0.000000
                                                         0.086100       0.113282

                          6       1    1fx3              0.163000       0.024853
                          6       1    1fx2y             0.163000       0.055573
                          6       1    1fx2z             0.163000       0.055573
                          6       1    1fxy2             0.163000       0.055573
                          6       1    1fxyz             0.163000       0.096255
                          6       1    1fxz2             0.163000       0.055573
                          6       1    1fy3              0.163000       0.024853
                          6       1    1fy2z             0.163000       0.055573
                          6       1    1fyz2             0.163000       0.055573
                          6       1    1fz3              0.163000       0.024853

                          7       1    1dx2              0.661000       0.797558
                                                         0.199000       0.000000
                          7       1    1dxy              0.661000       1.381410
                                                         0.199000       0.000000
                          7       1    1dxz              0.661000       1.381410
                                                         0.199000       0.000000
                          7       1    1dy2              0.661000       0.797558
                                                         0.199000       0.000000
                          7       1    1dyz              0.661000       1.381410
                                                         0.199000       0.000000
                          7       1    1dz2              0.661000       0.797558
                                                         0.199000       0.000000

                          7       2    2dx2              0.661000       0.000000
                                                         0.199000       0.097589
                          7       2    2dxy              0.661000       0.000000
                                                         0.199000       0.169030
                          7       2    2dxz              0.661000       0.000000
                                                         0.199000       0.169030
                          7       2    2dy2              0.661000       0.000000
                                                         0.199000       0.097589
                          7       2    2dyz              0.661000       0.000000
                                                         0.199000       0.169030
                          7       2    2dz2              0.661000       0.000000
                                                         0.199000       0.097589

                          8       1    1fx3              0.490000       0.295730
                          8       1    1fx2y             0.490000       0.661273
                          8       1    1fx2z             0.490000       0.661273
                          8       1    1fxy2             0.490000       0.661273
                          8       1    1fxyz             0.490000       1.145358
                          8       1    1fxz2             0.490000       0.661273
                          8       1    1fy3              0.490000       0.295730
                          8       1    1fy2z             0.490000       0.661273
                          8       1    1fyz2             0.490000       0.661273
                          8       1    1fz3              0.490000       0.295730

     AE Potential information for                                            ALL

       Description:                                       All-electron potential
                                          Krack, Parrinello, PCCP 2, 2105 (2000)

       Gaussian exponent of the core charge distribution:               2.655410
       Electronic configuration (s p d ...):                           4   1   0

  2. Atomic kind: H                                     Number of atoms:       1

     Orbital Basis Set                                               aug-cc-pVTZ

       Number of orbital shell sets:                                           6
       Number of orbital shells:                                               9
       Number of primitive Cartesian functions:                               11
       Number of Cartesian basis functions:                                   25
       Number of spherical basis functions:                                   23
       Norm type:                                                              2

       Normalised Cartesian orbitals:

                        Set   Shell   Orbital            Exponent    Coefficient

                          1       1    1s                0.025260       0.045158

                          2       1    1px               0.102000       0.082166
                          2       1    1py               0.102000       0.082166
                          2       1    1pz               0.102000       0.082166

                          3       1    1s               33.870000       0.000000
                                                         5.095000       0.000000
                                                         1.159000       0.000000
                                                         0.325800       0.307343
                                                         0.102700       0.000000

                          3       2    2s               33.870000       0.060718
                                                         5.095000       0.109507
                                                         1.159000       0.161468
                                                         0.325800       0.154871
                                                         0.102700       0.049575

                          3       3    3s               33.870000       0.000000
                                                         5.095000       0.000000
                                                         1.159000       0.000000
                                                         0.325800       0.000000
                                                         0.102700       0.129297

                          4       1    1dx2              0.247000       0.142439
                          4       1    1dxy              0.247000       0.246712
                          4       1    1dxz              0.247000       0.246712
                          4       1    1dy2              0.247000       0.142439
                          4       1    1dyz              0.247000       0.246712
                          4       1    1dz2              0.247000       0.142439

                          5       1    1px               1.407000       2.184277
                                                         0.388000       0.000000
                          5       1    1py               1.407000       2.184277
                                                         0.388000       0.000000
                          5       1    1pz               1.407000       2.184277
                                                         0.388000       0.000000

                          5       2    2px               1.407000       0.000000
                                                         0.388000       0.436495
                          5       2    2py               1.407000       0.000000
                                                         0.388000       0.436495
                          5       2    2pz               1.407000       0.000000
                                                         0.388000       0.436495

                          6       1    1dx2              1.057000       1.813597
                          6       1    1dxy              1.057000       3.141241
                          6       1    1dxz              1.057000       3.141241
                          6       1    1dy2              1.057000       1.813597
                          6       1    1dyz              1.057000       3.141241
                          6       1    1dz2              1.057000       1.813597

     RI Auxiliary Basis Set                                    aug-cc-pVTZ-OPTRI

       Number of orbital shell sets:                                           9
       Number of orbital shells:                                               9
       Number of primitive Cartesian functions:                                9
       Number of Cartesian basis functions:                                   34
       Number of spherical basis functions:                                   29
       Norm type:                                                              2

       Normalised Cartesian orbitals:

                        Set   Shell   Orbital            Exponent    Coefficient

                          1       1    1s                0.207674       0.219254

                          2       1    1s                0.488825       0.416654

                          3       1    1dx2              0.617513       0.708011
                          3       1    1dxy              0.617513       1.226311
                          3       1    1dxz              0.617513       1.226311
                          3       1    1dy2              0.617513       0.708011
                          3       1    1dyz              0.617513       1.226311
                          3       1    1dz2              0.617513       0.708011

                          4       1    1px               0.702626       0.916949
                          4       1    1py               0.702626       0.916949
                          4       1    1pz               0.702626       0.916949

                          5       1    1s                1.747055       1.083029

                          6       1    1dx2              1.784914       4.536696
                          6       1    1dxy              1.784914       7.857789
                          6       1    1dxz              1.784914       7.857789
                          6       1    1dy2              1.784914       4.536696
                          6       1    1dyz              1.784914       7.857789
                          6       1    1dz2              1.784914       4.536696

                          7       1    1fx3              1.918725       6.378714
                          7       1    1fx2y             1.918725      14.263237
                          7       1    1fx2z             1.918725      14.263237
                          7       1    1fxy2             1.918725      14.263237
                          7       1    1fxyz             1.918725      24.704651
                          7       1    1fxz2             1.918725      14.263237
                          7       1    1fy3              1.918725       6.378714
                          7       1    1fy2z             1.918725      14.263237
                          7       1    1fyz2             1.918725      14.263237
                          7       1    1fz3              1.918725       6.378714

                          8       1    1px               2.114191       3.633878
                          8       1    1py               2.114191       3.633878
                          8       1    1pz               2.114191       3.633878

                          9       1    1px               4.837096      10.225180
                          9       1    1py               4.837096      10.225180
                          9       1    1pz               4.837096      10.225180

       Atomic covalent radius [Angstrom]:                                  0.320

       Atomic van der Waals radius [Angstrom]:                             1.090

     The atoms of this atomic kind are PAW atoms (GAPW):
       Hard Gaussian function radius:                                      1.200
       Rho0 radius:                                                        1.200
       Maximum GTO radius used for PAW projector construction:            24.566

     GAPW Soft Basis Set                                        aug-cc-pVTZ_soft

       Number of orbital shell sets:                                           6
       Number of orbital shells:                                               9
       Number of primitive Cartesian functions:                               10
       Number of Cartesian basis functions:                                   25
       Number of spherical basis functions:                                   23
       Norm type:                                                              2

       Normalised Cartesian orbitals:

                        Set   Shell   Orbital            Exponent    Coefficient

                          1       1    1s                0.025260       0.045158

                          2       1    1px               0.102000       0.082166
                          2       1    1py               0.102000       0.082166
                          2       1    1pz               0.102000       0.082166

                          3       1    1s                5.095000       0.000000
                                                         1.159000       0.000000
                                                         0.325800       0.307343
                                                         0.102700       0.000000

                          3       2    2s                5.095000       0.109507
                                                         1.159000       0.161468
                                                         0.325800       0.154871
                                                         0.102700       0.049575

                          3       3    3s                5.095000       0.000000
                                                         1.159000       0.000000
                                                         0.325800       0.000000
                                                         0.102700       0.129297

                          4       1    1dx2              0.247000       0.142439
                          4       1    1dxy              0.247000       0.246712
                          4       1    1dxz              0.247000       0.246712
                          4       1    1dy2              0.247000       0.142439
                          4       1    1dyz              0.247000       0.246712
                          4       1    1dz2              0.247000       0.142439

                          5       1    1px               1.407000       2.184277
                                                         0.388000       0.000000
                          5       1    1py               1.407000       2.184277
                                                         0.388000       0.000000
                          5       1    1pz               1.407000       2.184277
                                                         0.388000       0.000000

                          5       2    2px               1.407000       0.000000
                                                         0.388000       0.436495
                          5       2    2py               1.407000       0.000000
                                                         0.388000       0.436495
                          5       2    2pz               1.407000       0.000000
                                                         0.388000       0.436495

                          6       1    1dx2              1.057000       1.813597
                          6       1    1dxy              1.057000       3.141241
                          6       1    1dxz              1.057000       3.141241
                          6       1    1dy2              1.057000       1.813597
                          6       1    1dyz              1.057000       3.141241
                          6       1    1dz2              1.057000       1.813597

     AE Potential information for                                            ALL

       Description:                                       All-electron potential
                                          Krack, Parrinello, PCCP 2, 2105 (2000)

       Gaussian exponent of the core charge distribution:              12.500000
       Electronic configuration (s p d ...):                           1   0   0


 MOLECULE KIND INFORMATION


 All atoms are their own molecule, skipping detailed information


 TOTAL NUMBERS AND MAXIMUM NUMBERS

  Total number of            - Atomic kinds:                                   2
                             - Atoms:                                          2
                             - Shell sets:                                    14
                             - Shells:                                        23
                             - Primitive Cartesian functions:                 33
                             - Cartesian basis functions:                     80
                             - Spherical basis functions:                     69

  Maximum angular momentum of the orbital basis functions:                     3


 MODULE QUICKSTEP: ATOMIC COORDINATES IN ANGSTROM

   Atom Kind Element         X             Y             Z       Z(eff)     Mass
      1    1 B     5     15.616628     15.000000     15.000000   5.0000  10.8110
      2    2 H     1     14.383372     15.000000     15.000000   1.0000   1.0079



 SCF PARAMETERS         Density guess:                                    ATOMIC
                        --------------------------------------------------------
                        max_scf:                                             500
                        max_scf_history:                                       0
                        max_diis:                                              4
                        --------------------------------------------------------
                        eps_scf:                                        1.00E-06
                        eps_scf_history:                                0.00E+00
                        eps_diis:                                       1.00E-01
                        eps_eigval:                                     1.00E-05
                        --------------------------------------------------------
                        level_shift [a.u.]:                             0.000000
                        added MOs                                        66    0
                        --------------------------------------------------------
                        Mixing method:                            BROYDEN_MIXING
                                                charge density mixing in g-space
                        --------------------------------------------------------
                        No outer SCF

 PW_GRID| Information for grid number                                          1
 PW_GRID| Grid distributed over                                    96 processors
 PW_GRID| Real space group dimensions                                    96    1
 PW_GRID| the grid is blocked:                                                NO
 PW_GRID| Cutoff [a.u.]                                                    250.0
 PW_GRID| spherical cutoff:                                                   NO
 PW_GRID|   Bounds   1           -202     202                Points:         405
 PW_GRID|   Bounds   2           -202     202                Points:         405
 PW_GRID|   Bounds   3           -202     202                Points:         405
 PW_GRID| Volume element (a.u.^3)  0.2743E-02     Volume (a.u.^3)    182205.0337
 PW_GRID| Grid span                                                    FULLSPACE
 PW_GRID|   Distribution                         Average         Max         Min
 PW_GRID|   G-Vectors                           691980.5      692145      691740
 PW_GRID|   G-Rays                                1708.6        1709        1708
 PW_GRID|   Real Space Points                   691980.5      820125      656100

 PW_GRID| Information for grid number                                          2
 PW_GRID| Number of the reference grid                                         1
 PW_GRID| Grid distributed over                                    96 processors
 PW_GRID| Real space group dimensions                                    96    1
 PW_GRID| the grid is blocked:                                                NO
 PW_GRID| Cutoff [a.u.]                                                     83.3
 PW_GRID| spherical cutoff:                                                   NO
 PW_GRID|   Bounds   1           -120     119                Points:         240
 PW_GRID|   Bounds   2           -120     119                Points:         240
 PW_GRID|   Bounds   3           -120     119                Points:         240
 PW_GRID| Volume element (a.u.^3)  0.1318E-01     Volume (a.u.^3)    182205.0337
 PW_GRID| Grid span                                                    FULLSPACE
 PW_GRID|   Distribution                         Average         Max         Min
 PW_GRID|   G-Vectors                           144000.0      144480      143760
 PW_GRID|   G-Rays                                 600.0         602         599
 PW_GRID|   Real Space Points                   144000.0      172800      115200

 PW_GRID| Information for grid number                                          3
 PW_GRID| Number of the reference grid                                         1
 PW_GRID| Grid distributed over                                    96 processors
 PW_GRID| Real space group dimensions                                    96    1
 PW_GRID| the grid is blocked:                                                NO
 PW_GRID| Cutoff [a.u.]                                                     27.8
 PW_GRID| spherical cutoff:                                                   NO
 PW_GRID|   Bounds   1            -67      67                Points:         135
 PW_GRID|   Bounds   2            -67      67                Points:         135
 PW_GRID|   Bounds   3            -67      67                Points:         135
 PW_GRID| Volume element (a.u.^3)  0.7406E-01     Volume (a.u.^3)    182205.0337
 PW_GRID| Grid span                                                    FULLSPACE
 PW_GRID|   Distribution                         Average         Max         Min
 PW_GRID|   G-Vectors                            25628.9       25785       25515
 PW_GRID|   G-Rays                                 189.8         191         189
 PW_GRID|   Real Space Points                    25628.9       36450       18225

 PW_GRID| Information for grid number                                          4
 PW_GRID| Number of the reference grid                                         1
 PW_GRID| Grid distributed over                                    96 processors
 PW_GRID| Real space group dimensions                                     8   12
 PW_GRID| the grid is blocked:                                                NO
 PW_GRID| Cutoff [a.u.]                                                      9.3
 PW_GRID| spherical cutoff:                                                   NO
 PW_GRID|   Bounds   1            -40      39                Points:          80
 PW_GRID|   Bounds   2            -40      39                Points:          80
 PW_GRID|   Bounds   3            -40      39                Points:          80
 PW_GRID| Volume element (a.u.^3)  0.3559         Volume (a.u.^3)    182205.0337
 PW_GRID| Grid span                                                    FULLSPACE
 PW_GRID|   Distribution                         Average         Max         Min
 PW_GRID|   G-Vectors                             5333.3        5520        5200
 PW_GRID|   G-Rays                                  66.7          69          65
 PW_GRID|   Real Space Points                     5333.3        5600        4800

 POISSON| Solver                                                         WAVELET
 POISSON| Wavelet| Scaling function                                           40
 POISSON| Periodicity                                                       NONE

 RS_GRID| Information for grid number                                          1
 RS_GRID|   Bounds   1           -202     202                Points:         405
 RS_GRID|   Bounds   2           -202     202                Points:         405
 RS_GRID|   Bounds   3           -202     202                Points:         405
 RS_GRID| Real space distribution over                                  4 groups
 RS_GRID| Real space distribution along direction                              1
 RS_GRID| Border size                                                         35
 RS_GRID| Real space distribution over                                  4 groups
 RS_GRID| Real space distribution along direction                              2
 RS_GRID| Border size                                                         35
 RS_GRID| Real space distribution over                                  6 groups
 RS_GRID| Real space distribution along direction                              3
 RS_GRID| Border size                                                         35
 RS_GRID|   Distribution                         Average         Max         Min
 RS_GRID|   Planes                                 171.2         172         171
 RS_GRID|   Distribution                         Average         Max         Min
 RS_GRID|   Planes                                 171.2         172         171
 RS_GRID|   Distribution                         Average         Max         Min
 RS_GRID|   Planes                                 137.5         138         137

 RS_GRID| Information for grid number                                          2
 RS_GRID|   Bounds   1           -120     119                Points:         240
 RS_GRID|   Bounds   2           -120     119                Points:         240
 RS_GRID|   Bounds   3           -120     119                Points:         240
 RS_GRID| Real space distribution over                                  4 groups
 RS_GRID| Real space distribution along direction                              1
 RS_GRID| Border size                                                         37
 RS_GRID| Real space distribution over                                  4 groups
 RS_GRID| Real space distribution along direction                              2
 RS_GRID| Border size                                                         37
 RS_GRID| Real space distribution over                                  6 groups
 RS_GRID| Real space distribution along direction                              3
 RS_GRID| Border size                                                         37
 RS_GRID|   Distribution                         Average         Max         Min
 RS_GRID|   Planes                                 134.0         134         134
 RS_GRID|   Distribution                         Average         Max         Min
 RS_GRID|   Planes                                 134.0         134         134
 RS_GRID|   Distribution                         Average         Max         Min
 RS_GRID|   Planes                                 114.0         114         114

 RS_GRID| Information for grid number                                          3
 RS_GRID|   Bounds   1            -67      67                Points:         135
 RS_GRID|   Bounds   2            -67      67                Points:         135
 RS_GRID|   Bounds   3            -67      67                Points:         135
 RS_GRID| Real space fully replicated
 RS_GRID| Group size                                                           1

 RS_GRID| Information for grid number                                          4
 RS_GRID|   Bounds   1            -40      39                Points:          80
 RS_GRID|   Bounds   2            -40      39                Points:          80
 RS_GRID|   Bounds   3            -40      39                Points:          80
 RS_GRID| Real space fully replicated
 RS_GRID| Group size                                                           1

  HFX_INFO| Replica ID:                                                        1
  HFX_INFO| FRACTION:                                               0.2500000000
  HFX_INFO| Interaction Potential:                                       COULOMB
  HFX_INFO| EPS_SCHWARZ:                                                 1.0E-10
  HFX_INFO| EPS_SCHWARZ_FORCES                                           1.0E-08
  HFX_INFO| EPS_STORAGE_SCALING:                                         1.0E+00
  HFX_INFO| NBINS:                                                            64
  HFX_INFO| BLOCK_SIZE:                                                        1
  HFX_INFO| Number of periodic shells considered:                           NONE
  HFX_INFO| Number of periodic cells considered:                            NONE


 OVERLAP MATRIX CONDITION NUMBER
 1-Norm Condition Number (Estimate)
   CN : |A|*|A^-1|:  9.036E+000 *  4.259E+003   = 3.849E+004  Log(1-CN):  4.5853
 1-Norm and 2-Norm Condition Numbers using Diagonalization
   CN : |A|*|A^-1|:  9.036E+000 *  4.259E+003   = 3.849E+004  Log(1-CN):  4.5853
   CN : max/min ev:  5.905E+000 /  4.693E-004   = 1.258E+004  Log(2-CN):  4.0998

 Number of electrons:                                                          6
 Number of occupied orbitals:                                                  3
 Number of molecular orbitals:                                                69

 Number of orbital functions:                                                 69
 Number of independent orbital functions:                                     69

 Extrapolation method: initial_guess

 Atomic guess: The first density matrix is obtained in terms of atomic orbitals
               and electronic configurations assigned to each atomic kind

 Guess for atomic kind: B

 Electronic structure
    Total number of core electrons                                          0.00
    Total number of valence electrons                                       5.00
    Total number of electrons                                               5.00
    Multiplicity                                                   not specified
    S      2.00  2.00
    P      1.00


 *******************************************************************************
                  Iteration          Convergence                     Energy [au]
 *******************************************************************************
                          1        0.414231E-01                 -24.338802418326
                          2        0.208226E-01                 -24.341013833998
                          3        0.144589E-02                 -24.342166580794
                          4        0.570422E-04                 -24.342171174007
                          5        0.523618E-06                 -24.342171180924

 Energy components [Hartree]           Total Energy ::          -24.342171180924
                                        Band Energy ::          -13.953270957225
                                     Kinetic Energy ::           24.150669622431
                                   Potential Energy ::          -48.492840803354
                                      Virial (-V/T) ::            2.007929451294
                                        Core Energy ::          -32.320703471960
                                          XC Energy ::           -3.524376815134
                                     Coulomb Energy ::           11.502909106171

 Orbital energies  State     L     Occupation   Energy[a.u.]          Energy[eV]

                       1     0          2.000      -6.563491         -178.601683
                       2     0          2.000      -0.344915           -9.385607

                       1     1          1.000      -0.136459           -3.713232


 Total Electron Density at R=0:                                        67.848647

 Guess for atomic kind: H

 Electronic structure
    Total number of core electrons                                          0.00
    Total number of valence electrons                                       1.00
    Total number of electrons                                               1.00
    Multiplicity                                                   not specified
    S      1.00


 *******************************************************************************
                  Iteration          Convergence                     Energy [au]
 *******************************************************************************
                          1        0.899984E-02                  -0.445273676984
                          2        0.831993E-03                  -0.445370735705
                          3        0.104223E-03                  -0.445373223017
                          4        0.123824E-06                  -0.445373248884

 Energy components [Hartree]           Total Energy ::           -0.445373248884
                                        Band Energy ::           -0.233121027105
                                     Kinetic Energy ::            0.424055116706
                                   Potential Energy ::           -0.869428365590
                                      Virial (-V/T) ::            2.050272078646
                                        Core Energy ::           -0.495782636313
                                          XC Energy ::           -0.232278681357
                                     Coulomb Energy ::            0.282688068786

 Orbital energies  State     L     Occupation   Energy[a.u.]          Energy[eV]

                       1     0          1.000      -0.233121           -6.343546


 Total Electron Density at R=0:                                         0.244200
 Re-scaling the density matrix to get the right number of electrons
                  # Electrons              Trace(P)               Scaling factor
                            6                 6.000                        1.000


 SCF WAVEFUNCTION OPTIMIZATION

  Step     Update method      Time    Convergence         Total energy    Change
  ------------------------------------------------------------------------------

  HFX_MEM_INFO| Est. max. program size before HFX [MiB]:                     815
  HFX_MEM_INFO| Number of cart. primitive ERI's calculated:             36549225
  HFX_MEM_INFO| Number of sph. ERI's calculated:                         9794435
  HFX_MEM_INFO| Number of sph. ERI's stored in-core:                     9794435
  HFX_MEM_INFO| Number of sph. ERI's stored on disk:                           0
  HFX_MEM_INFO| Number of sph. ERI's calculated on the fly:                    0
  HFX_MEM_INFO| Total memory consumption ERI's RAM [MiB]:                     36
  HFX_MEM_INFO| Whereof max-vals [MiB]:                                        3
  HFX_MEM_INFO| Total compression factor ERI's RAM:                         2.13
  HFX_MEM_INFO| Total memory consumption ERI's disk [MiB]:                     0
  HFX_MEM_INFO| Total compression factor ERI's disk:                        0.00
  HFX_MEM_INFO| Size of density/Fock matrix [MiB]:                             0
  HFX_MEM_INFO| Size of buffers [MiB]:                                         0
  HFX_MEM_INFO| Est. max. program size after HFX  [MiB]:                    1357

     1 NoMix/Diag. 0.10E+00    5.9     1.19048527       -25.1687119943 -2.52E+01
     2 Broy./Diag. 0.10E+00    1.6     0.12935020       -25.0106572458  1.58E-01
     3 Broy./Diag. 0.10E+00    1.6     0.18742087       -24.7782551090  2.32E-01
     4 Broy./Diag. 0.10E+00    1.6     0.35496643       -25.0309536205 -2.53E-01
     5 Broy./Diag. 0.10E+00    1.6     0.07667752       -25.0995413636 -6.86E-02
     6 Broy./Diag. 0.10E+00    1.7     0.01174244       -25.1053227358 -5.78E-03
     7 Broy./Diag. 0.10E+00    1.7     0.08092268       -25.1604760498 -5.52E-02
     8 Broy./Diag. 0.10E+00    1.7     0.02907919       -25.2047896352 -4.43E-02
     9 Broy./Diag. 0.10E+00    1.7     0.01405353       -25.2231244471 -1.83E-02
    10 Broy./Diag. 0.10E+00    1.7     0.02836393       -25.2410184094 -1.79E-02
    11 Broy./Diag. 0.10E+00    1.8     0.00833879       -25.2502439181 -9.23E-03
    12 Broy./Diag. 0.10E+00    1.7     0.00562269       -25.2497758963  4.68E-04
    13 Broy./Diag. 0.10E+00    1.7     0.01000363       -25.2441868326  5.59E-03
    14 Broy./Diag. 0.10E+00    1.7     0.00198783       -25.2476640467 -3.48E-03
    15 Broy./Diag. 0.10E+00    1.7     0.01044912       -25.2499818688 -2.32E-03
    16 Broy./Diag. 0.10E+00    1.7     0.01121341       -25.2482847575  1.70E-03
    17 Broy./Diag. 0.10E+00    1.7     0.00281878       -25.2488945977 -6.10E-04
    18 Broy./Diag. 0.10E+00    1.7     0.00423923       -25.2494909607 -5.96E-04
    19 Broy./Diag. 0.10E+00    1.7     0.01310298       -25.2482152228  1.28E-03
    20 Broy./Diag. 0.10E+00    1.8     0.00244533       -25.2487419384 -5.27E-04
    21 Broy./Diag. 0.10E+00    1.7     0.00394990       -25.2484843691  2.58E-04
    22 Broy./Diag. 0.10E+00    1.7     0.00569056       -25.2482316992  2.53E-04
[...]
 The design and implementation of FFTW3.
 https://doi.org/10.1109/JPROC.2004.840301

 R. L. Martin.
 J. Chem. Phys. 118, 4775-4777 (2003).
 Natural transition orbitals.
 https://doi.org/10.1063/1.1558471

 M. Krack, M. Parrinello.
 Phys. Chem. Chem. Phys. 2, 2105-2112 (2000).
 All-electron ab-initio molecular dynamics.
 https://doi.org/10.1039/b001167n

 G. Lippert, J. Hutter, M. Parrinello.
 Theor. Chem. Acc. 103, 124-140 (1999).
 The Gaussian and augmented-plane-wave density functional method for ab initio 
 molecular dynamics simulations.
 https://doi.org/10.1007/s002140050523

 J. P. Perdew, K. Burke, M. Ernzerhof.
 Phys. Rev. Lett. 77, 3865-3868 (1996).
 Generalized gradient approximation made simple.
 https://doi.org/10.1103/PhysRevLett.77.3865


 -------------------------------------------------------------------------------
 -                                                                             -
 -                                T I M I N G                                  -
 -                                                                             -
 -------------------------------------------------------------------------------
 SUBROUTINE                       CALLS  ASD         SELF TIME        TOTAL TIME
                                MAXIMUM       AVERAGE  MAXIMUM  AVERAGE  MAXIMUM
 CP2K                                 1  1.0    0.026    0.041  276.259  276.259
 qs_energies                          1  2.0    0.000    0.001  275.158  275.159
 qs_energies_properties               1  3.0    0.000    0.000  159.567  159.567
 tddfpt                               1  4.0    0.000    0.000  159.567  159.567
 tddfpt_energies                      1  5.0    0.000    0.001  159.535  159.535
 tddfpt_davidson_solver               1  6.0    0.001    0.002  158.304  158.305
 tddfpt_compute_Aop_evects            5  7.0    0.000    0.000  157.433  157.434
 fhxc_kernel                          5  8.0    0.005    0.006  145.931  145.931
 scf_env_do_scf                       1  3.0    0.000    0.000  114.991  114.991
 scf_env_do_scf_inner_loop           64  4.0    0.002    0.004  114.990  114.991
 fft_wrap_pw1pw2                   3358 10.9    0.068    0.098  105.433  107.950
 fft_wrap_pw1pw2_250               2368 12.0    4.106    5.254  101.542  103.506
 fft3d_ps                          3358 12.9   36.579   45.817   87.685   90.294
 qs_ks_update_qs_env                 64  5.0    0.000    0.001   86.487   86.496
 rebuild_ks_matrix                   64  6.0    0.000    0.000   86.481   86.489
 qs_ks_build_kohn_sham_matrix        64  7.0    0.010    0.011   86.481   86.489
 pw_poisson_solve                   164  9.2    2.270    2.742   80.227   80.445
 tddfpt_apply_coulomb               100  9.0    0.002    0.003   59.166   59.411
 ps_wavelet_solve                   164 10.2   36.934   42.376   47.503   48.152
 mp_alltoall_z22v                  3358 14.9   43.918   47.448   43.918   47.448
 xc_pw_derive                       987 11.0    0.011    0.013   45.483   45.980
 qs_rho_update_rho_low              166  7.4    0.002    0.002   41.601   41.603
 calculate_rho_elec                 166  8.4    0.807    0.958   41.477   41.479
 mp_alltoall_d54                    164 11.2    5.989   36.426    5.989   36.426
 tddfpt_apply_xc_analytic           100  9.0    0.142    0.188   34.051   34.521
 xc_pw_divergence                   164 10.6    0.007    0.008   31.101   31.579
 density_rs2pw                      166  9.4    0.010    0.012   28.041   29.271
 integrate_v_rspace                 164  9.0    0.004    0.004   27.776   27.954
 yz_to_x                           1484 14.2    2.558    3.010   25.277   27.661
 x_to_yz                           1544 13.6    4.245    4.938   25.419   26.477
 qs_vxc_create                       64  8.0    0.001    0.001   24.428   24.429
 xc_vxc_pw_create                    64  9.0    0.389    0.463   24.427   24.428
 potential_pw2rs                    164 10.0    0.056    0.063   22.952   23.173
 xc_calc_2nd_deriv_analytical       500 10.0    1.192    1.260   20.274   20.324
 transfer_pw2rs                     821 10.8    0.013    0.017   18.688   18.957
 transfer_rs2pw                     830 10.5    0.023    0.034   16.863   17.699
 integrate_four_center              264  9.8    5.621   11.717   16.885   16.965
 mp_alltoall_d11v                  9484 11.5   12.650   16.914   12.650   16.914
 prepare_gapw_den                   165  8.6    0.003    0.003   15.577   15.767
 grid_collocate_task_list           166  9.4   11.937   14.130   11.937   14.130
 put_rho0_on_grid                   165  9.6    0.810    0.971   13.656   13.845
 mp_waitany                       29730 12.6   12.415   13.798   12.415   13.798
 mp_sync                           1438 11.4    7.532   13.172    7.532   13.172
 xc_rho_set_and_dset_create          65 10.0    0.289    0.350   11.345   12.295
 gspace_mixing                       63  5.0    0.306    0.363   11.378   11.379
 transfer_rs2pw_250                 332 11.5    4.214    4.448   10.160   11.313
 transfer_pw2rs_250                 329 11.6    4.091    4.492   10.858   11.092
 tddfpt_apply_hfx                     5  8.0    0.002    0.002   11.078   11.078
 sum_up_and_integrate                64  8.0    0.001    0.001   10.523   10.556
 tddft_hfx_matrix                   200  9.0    0.005    0.006    9.969   10.024
 integrate_four_center_main         264 10.8    0.100    5.688    0.148    9.429
 broyden_mixing                      63  6.0    8.184    8.442    8.378    8.491
 integrate_vhg0_rspace              164  9.2    0.106    0.125    7.946    8.048
 mp_alltoall_d45                    165 11.2    4.261    7.439    4.261    7.439
 hfx_ks_matrix                       64  8.0    0.002    0.003    6.923    6.988
 pw_scatter_p                      1708 12.7    5.603    5.775    5.603    5.775
 pw_gather_p                       1650 13.1    4.929    5.552    4.929    5.552
 mp_sum_d                          2398  7.5    4.301    5.051    4.301    5.051
 rs_gather_matrices                 164 10.0    0.015    0.028    4.643    4.840
 grid_integrate_task_list           164 10.0    0.177    4.759    0.177    4.759
 transfer_pw2rs_30                  164 12.0    2.799    3.177    4.589    4.731
 pw_derive                         1479 11.7    4.370    4.643    4.370    4.643
 mp_waitall_1                    172834 13.3    3.443    4.399    3.443    4.399
 cp2k_distribution_to_z_slices      164 10.2    1.581    1.756    3.780    4.001
 gaVxcgb_GC                         328  9.6    0.041    3.950    0.041    3.950
 integrate_four_center_bin        20568 11.8    0.047    3.741    0.047    3.741
 transfer_rs2pw_30                  166 11.4    1.568    1.638    3.657    3.727
 fft_wrap_pw1pw2_90                 330 11.7    0.112    0.160    2.936    3.675
 calculate_xc_2nd_deriv_atom        100  9.0    0.020    0.814    0.057    3.430
 rs_grid_zero                       823 11.8    2.942    3.104    2.942    3.104
 xc_functional_eval                 721 10.9    0.001    0.003    2.284    3.050
 pbe_lda_eval                       721 11.9    2.283    3.049    2.283    3.049
 transfer_rs2pw_90                  166 11.4    0.614    0.686    2.273    2.876
 pw_copy                           2265 10.9    2.572    2.760    2.572    2.760
 cp_dbcsr_sm_fm_multiply            646  8.5    0.012    0.013    2.660    2.727
 transfer_pw2rs_90                  164 12.0    0.674    0.770    2.437    2.663
 mp_sendrecv_dv                   31540 12.4    2.552    2.642    2.552    2.642
 pw_poisson_set                     165 10.2    0.006    0.007    2.535    2.583
 pw_copy_to_array                  1650 13.1    1.786    2.163    1.786    2.163
 calculate_vxc_atom                  64  8.0    0.020    0.272    1.891    1.892
 pw_axpy                           1748 10.6    1.731    1.884    1.731    1.884
 calculate_rho_atom                 330  9.6    0.711    1.836    0.711    1.836
 dbcsr_complete_redistribute       2209 10.4    0.076    0.116    1.716    1.780
 calc_screening_functions             1 10.0    1.030    1.094    1.569    1.649
 mp_isendrecv_dv                  81320 12.2    0.840    1.606    0.840    1.606
 pw_integral_ab_c1d_c1d_gs          164 10.2    1.201    1.211    1.410    1.581
 pw_copy_from_array                1708 12.7    1.118    1.402    1.118    1.402
 dbcsr_multiply_generic             910 10.2    0.037    0.040    1.329    1.365
 mp_sum_dv                         6568  8.9    1.261    1.310    1.261    1.310
 pw_zero                           1690 10.5    1.145    1.237    1.145    1.237
 copy_dbcsr_to_fm                   732  9.1    0.009    0.010    1.202    1.224
 mp_sum_dm                         1073  9.5    0.912    1.164    0.912    1.164
 copy_fm_to_dbcsr                  1475  9.5    0.006    0.007    1.072    1.142
 mp_isend_dv                      63062 13.6    0.712    1.106    0.712    1.106
 mp_irecv_dm3                      5946 12.6    0.474    1.079    0.474    1.079
 mp_isend_dm3                      5946 12.6    0.507    1.069    0.507    1.069
 qs_scf_new_mos                      64  5.0    0.001    0.001    0.966    0.974
 powell_optimize                 361572 11.0    0.887    0.919    0.887    0.919
 cp_dbcsr_sm_fm_multiply_core       646  9.5    0.002    0.002    0.878    0.912
 transfer_pw2rs_10                  164 12.0    0.298    0.327    0.791    0.890
 Vh_1c_gg_integrals                 164  9.2    0.015    0.331    0.737    0.887
 cp_fm_syevd                        111  7.2    0.001    0.001    0.834    0.837
 pw_poisson_rebuild                 164 10.2    0.000    0.000    0.773    0.786
 ps_wavelet_create                    1 10.0    0.000    0.000    0.773    0.786
 RS_z_slice_distribution              1 11.0    0.675    0.724    0.773    0.785
 create_qs_kind_set                   1  2.0    0.000    0.000    0.771    0.771
 read_qs_kind                         2  3.0    0.418    0.429    0.771    0.771
 transfer_rs2pw_10                  166 11.4    0.287    0.314    0.749    0.770
 integrate_four_center_dist_KS      264 10.8    0.041    0.046    0.763    0.769
 multiply_cannon                    910 11.2    0.086    0.090    0.728    0.765
 integrate_four_center_getP         264 10.8    0.040    0.044    0.754    0.760
 cp_fm_redistribute_end             111  8.2    0.394    0.730    0.398    0.733
 fft_wrap_pw1pw2_30                 330 11.7    0.021    0.025    0.634    0.728
 mp_alltoall_i11v                  7360 11.3    0.699    0.700    0.699    0.700
 cp_dbcsr_plus_fm_fm_t              164  8.2    0.002    0.003    0.684    0.690
 cp_fm_syevd_base                   111  8.2    0.333    0.667    0.333    0.667
 mp_max_i                           632  4.2    0.500    0.656    0.500    0.656
 eigensolver_symm                    64  6.0    0.002    0.002    0.612    0.613
 tddfpt_orthonormalize_psi1_psi       6  6.8    0.008    0.008    0.580    0.580
 multiply_cannon_loop               910 12.2    0.139    0.147    0.526    0.560
 offload_free_buffer                172  9.9    0.449    0.547    0.449    0.547
 calc_pair_dist_radii                 1 10.0    0.180    0.186    0.527    0.542
 tddfpt_print_nto_analysis            1  6.0    0.002    0.003    0.523    0.523
 dbcsr_desymmetrize_deep            733 10.1    0.013    0.016    0.473    0.490
 scale_and_distribute               328 11.2    0.417    0.474    0.417    0.474
 make_m2s                          1820 11.2    0.027    0.029    0.397    0.428
 tddfpt_apply_energy_diff             5  8.0    0.000    0.000    0.424    0.424
 prepare_dr1dr                      500 11.0    0.356    0.417    0.356    0.417
 init_scf_run                         1  3.0    0.000    0.000    0.402    0.403
 scf_env_initial_rho_setup            1  4.0    0.000    0.000    0.388    0.388
 tddfpt_construct_ground_state_       1  6.0    0.000    0.000    0.367    0.373
 mp_alltoall_i22                   2942 11.3    0.283    0.363    0.283    0.363
 parser_read_line                 88114  4.0    0.031    0.033    0.353    0.359
 parser_read_line_low                98  5.0    0.032    0.141    0.322    0.330
 make_images                       1820 12.2    0.072    0.076    0.304    0.318
 tddfpt_compute_residual_vects        4  7.0    0.000    0.000    0.308    0.308
 broadcast_input_information         98  6.0    0.075    0.083    0.290    0.299
 cp_fm_geeig                         20  7.0    0.001    0.001    0.271    0.271
 fft_wrap_pw1pw2_10                 330 11.7    0.005    0.006    0.253    0.271
 qs_init_subsys                       1  2.0    0.004    0.004    0.257    0.257
 qs_env_setup                         1  3.0    0.000    0.000    0.243    0.244
 qs_env_rebuild_pw_env                2  3.5    0.000    0.000    0.242    0.244
 pw_env_rebuild                       1  5.0    0.001    0.001    0.242    0.243
 calculate_dm_sparse                 64  6.0    0.000    0.001    0.234    0.239
 create_kernel_env                    1  6.0    0.000    0.000    0.211    0.238
 xc_prep_2nd_deriv                    1  7.0    0.000    0.000    0.211    0.238
 pw_grid_setup                        4  6.0    0.000    0.000    0.226    0.227
 pw_grid_setup_internal               4  7.0    0.006    0.008    0.226    0.227
 hybrid_alltoall_any               2553 13.3    0.019    0.026    0.215    0.222
 mp_rank_compare                   3358 13.9    0.197    0.212    0.197    0.212
 mp_sum_l                          3690 10.1    0.172    0.202    0.172    0.202
 parallel_gemm_fm                   983  8.1    0.001    0.001    0.177    0.196
 parallel_gemm_fm_gemm              983  9.1    0.001    0.001    0.176    0.195
 cp_fm_gemm                         983 10.1    0.174    0.193    0.174    0.193
 xc_2nd_deriv_of_r                  400 10.0    0.000    0.031    0.002    0.184
 pw_scale                           456  9.5    0.155    0.184    0.155    0.184
 mp_alltoall_z11v                   330 14.7    0.150    0.167    0.150    0.167
 pw_grid_sort                         4  8.0    0.107    0.109    0.156    0.161
 dbcsr_finalize                    5360 11.3    0.025    0.033    0.110    0.148
 mp_irecv_dv                      63095 13.6    0.070    0.146    0.070    0.146
 mp_bcast_i_src                     392  7.0    0.125    0.140    0.125    0.140
 mp_cart_sub                       1467 11.1    0.134    0.136    0.134    0.136
 integrate_four_center_load         264 10.8    0.001    0.001    0.092    0.125
 hfx_load_balance                     1 11.0    0.000    0.000    0.091    0.124
 multiply_cannon_metrocomm4       20020 13.2    0.059    0.062    0.111    0.123
 calculate_rho_atom_coeff           166  8.4    0.011    0.048    0.123    0.123
 cp_fm_trace_a1b1t1_aa             5260  8.0    0.025    0.026    0.117    0.118
 qs_energies_init_hamiltonians        1  3.0    0.000    0.000    0.118    0.118
 hfx_load_balance_range               1 12.0    0.000    0.001    0.084    0.117
 multiply_cannon_metrocomm3       21840 13.2    0.034    0.036    0.086    0.116
 make_images_sizes                 1820 13.2    0.002    0.002    0.108    0.114
 mp_alltoall_i44                   1820 14.2    0.106    0.112    0.106    0.112
 build_core_hamiltonian_matrix        1  4.0    0.000    0.000    0.111    0.111
 mp_cart_create                    1065 10.6    0.104    0.109    0.105    0.110
 overlap_condnum                      1  5.0    0.000    0.000    0.109    0.110
 multiply_cannon_metrocomm2       19110 13.2    0.057    0.060    0.101    0.108
 cp_fm_redistribute_start           111  8.2    0.082    0.084    0.103    0.107
 yz_to_xz                           164 14.0    0.009    0.010    0.092    0.107
 mp_bcast_am_src                     98  7.0    0.079    0.090    0.089    0.103
 update_ks_atom                     164  8.6    0.009    0.029    0.068    0.099
 dbcsr_create_new                 20502 11.9    0.068    0.073    0.089    0.094
 rs_scatter_matrices                166  9.4    0.001    0.006    0.093    0.094
 mp_bcast_dm                        656  9.6    0.060    0.091    0.060    0.091
 rs_grid_create                     170 10.1    0.001    0.002    0.010    0.090
 offload_create_buffer              172 11.0    0.009    0.089    0.009    0.089
 dbcsr_merge_all                   3942 12.4    0.049    0.062    0.061    0.085
 mixing_init                          1  5.0    0.078    0.082    0.082    0.083
 calculate_rho0_atom                330  9.6    0.077    0.081    0.077    0.081
 scf_post_calculation_gpw             1  3.0    0.000    0.000    0.080    0.080
 write_available_results              1  4.0    0.000    0.000    0.080    0.080
 write_mo_free_results                1  5.0    0.007    0.010    0.080    0.080
 arnoldi_conjugate_gradient           5  6.0    0.002    0.003    0.079    0.079
 vxc_of_r_new                       256  9.0    0.000    0.012    0.001    0.078
 xz_to_yz                           166 13.4    0.006    0.007    0.073    0.078
 multiply_cannon_metrocomm1       21840 13.2    0.024    0.025    0.058    0.072
 dbcsr_special_finalize            4550 13.2    0.017    0.018    0.048    0.065
 mp_allgather_i34                   910 12.2    0.058    0.065    0.058    0.065
 make_images_data                  1820 13.2    0.018    0.025    0.038    0.064
 tddfpt_orthogonalize_psi1_psi0       6  6.8    0.000    0.000    0.040    0.059
 sort_shells                          4  9.0    0.049    0.053    0.049    0.053
 xc_pw_smooth                        64 10.0    0.000    0.000    0.034    0.048
 dbcsr_sym_matrix_vector_mult       302  7.0    0.005    0.005    0.030    0.048
 copy_fm_to_dbcsr_bc               1475 10.5    0.015    0.017    0.041    0.048
 multiply_cannon_multrec          21840 13.2    0.028    0.042    0.032    0.046
 tddfpt_compute_ritz_vects            5  7.0    0.003    0.003    0.044    0.044
 dbcsr_merge_single_wm             4550 14.2    0.022    0.027    0.025    0.040
 dbcsr_destroy                    19838 11.1    0.025    0.027    0.037    0.040
 cp_fm_cholesky_decompose            20  8.0    0.039    0.039    0.039    0.039
 dbcsr_iterator_start             19578 11.5    0.026    0.031    0.031    0.039
 cp_fm_triangular_invert             20  8.0    0.037    0.037    0.037    0.037
 calculate_hirshfeld_normalizat       1  6.0    0.000    0.001    0.032    0.037
 dbcsr_work_create                 9225 12.4    0.021    0.022    0.030    0.035
 hirshfeld_integration                1  6.0    0.000    0.001    0.035    0.035
 mp_isend_iv                      42770 14.2    0.031    0.034    0.031    0.034
 dbcsr_data_new                   65753 12.6    0.030    0.034    0.030    0.034
 dbcsr_make_images_dense            528 11.5    0.008    0.008    0.024    0.034
 dbcsr_data_release               98211 12.6    0.028    0.032    0.028    0.032
 dbcsr_add_d                        502  7.3    0.001    0.001    0.004    0.030
 pw_grid_assign                       4  8.0    0.027    0.029    0.029    0.030
 dbcsr_copy                        3640  9.7    0.010    0.011    0.026    0.029
 dbcsr_add_anytype                  502  8.3    0.001    0.004    0.003    0.029
 dbcsr_work_destroy_all            9225 13.3    0.019    0.021    0.025    0.029
 -------------------------------------------------------------------------------

 The number of warnings for this run is : 1
 
 -------------------------------------------------------------------------------
  **** **** ******  **  PROGRAM ENDED AT                 2025-04-12 04:35:18.426
 ***** ** ***  *** **   PROGRAM RAN ON                              i01r09c01s07
 **    ****   ******    PROGRAM RAN BY                                   di38fab
 ***** **    ** ** **   PROGRAM PROCESS ID                               1162028
  **** **  *******  **  PROGRAM STOPPED IN /hppfs/scratch/04/di38fab/05_MOL/W4-1
                                           1+ALK/bh/aug-cc-pVTZ/TDDFT
