 DBCSR| CPU Multiplication driver                                           BLAS (U)
 DBCSR| Multrec recursion limit                                              512 (U)
 DBCSR| Multiplication stack size                                           1000 (D)
 DBCSR| Maximum elements for images                                    UNLIMITED (U)
 DBCSR| Multiplicative factor virtual images                                   1 (U)
 DBCSR| Use multiplication densification                                       T (D)
 DBCSR| Multiplication size stacks                                             3 (U)
 DBCSR| Use memory pool for CPU allocation                                     F (U)
 DBCSR| Number of 3D layers                                               SINGLE (U)
 DBCSR| Use MPI memory allocation                                              F (U)
 DBCSR| Use RMA algorithm                                                      F (U)
 DBCSR| Use Communication thread                                               T (U)
 DBCSR| Communication thread load                                             45 (D)
 DBCSR| MPI: My process id                                                     0
 DBCSR| MPI: Number of processes                                             128
 DBCSR| OMP: Current number of threads                                        12
 DBCSR| OMP: Max number of threads                                            12
 DBCSR| Split modifier for TAS multiplication algorithm                  1.0E+00 (U)


  **** **** ******  **  PROGRAM STARTED AT               2025-04-14 03:18:15.628
 ***** ** ***  *** **   PROGRAM STARTED ON                          i08r02c01s10
 **    ****   ******    PROGRAM STARTED BY                               di38fab
 ***** **    ** ** **   PROGRAM PROCESS ID                               1477316
  **** **  *******  **  PROGRAM STARTED IN /hppfs/scratch/04/di38fab/05_MOL/aUKB
                                           qsEOTmq69kFe5R_nOg/5k_set_final_qzvp/
                                           PUVSOO/aug-cc-pVQZ/TDDFT

 CP2K| version string:                 CP2K version 2025.1 (Development Version)
 CP2K| source code revision number:                             unknown revision
 CP2K| cp2kflags: omp libint fftw3 libxc parallel scalapack max_contr=4         
 CP2K| is freely available from                            https://www.cp2k.org/
 CP2K| Program compiled at                         Thu Apr 10 16:20:23 CEST 2025
 CP2K| Program compiled on                                               login01
 CP2K| Program compiled for                                        Supermuc-foss
 CP2K| Data directory path                  /hppfs/work/pn36zo/di38fab/cp2k/data
 CP2K| Input file name                                                    GW.inp

 GLOBAL| Force Environment number                                              1
 GLOBAL| Basis set file name            /hppfs/scratch/04/di38fab/04_TMD/BASIS_A
 GLOBAL| Potential file name            /hppfs/work/pn36zo/di38fab/cp2k/data/ALL
 GLOBAL| MM Potential file name                                     MM_POTENTIAL
 GLOBAL| Coordinate file name                                      __STD_INPUT__
 GLOBAL| Method name                                                        CP2K
 GLOBAL| Project name                                                       MoS2
 GLOBAL| Run type                                                         ENERGY
 GLOBAL| FFT library                                                       FFTW3
 GLOBAL| Diagonalization library                                       ScaLAPACK
 GLOBAL| DGEMM library                                                      BLAS
 GLOBAL| Orthonormality check for eigenvectors                          DISABLED
 GLOBAL| Matrix multiplication library                                 ScaLAPACK
 GLOBAL| All-to-all communication in single precision                          F
 GLOBAL| FFTs using library dependent lengths                                  F
 GLOBAL| Grid backend                                                       AUTO
 GLOBAL| Global print level                                               MEDIUM
 GLOBAL| MPI I/O enabled                                                       T
 GLOBAL| Total number of message passing processes                           128
 GLOBAL| Number of threads for this process                                   12
 GLOBAL| This output is from process                                           0
 GLOBAL| OpenMP stack size per thread (OMP_STACKSIZE)                    default
 GLOBAL| CPU model name             Intel(R) Xeon(R) Platinum 8174 CPU @ 3.10GHz

 MEMORY| system memory details [Kb]
 MEMORY|                        rank 0           min           max       average
 MEMORY| MemTotal             98436660      98436648      98436736      98436668
 MEMORY| MemFree              84478364      84425792      85674200      84888591
 MEMORY| Buffers                     0             0             0             0
 MEMORY| Cached                2346328       2346328       2386828       2368574
 MEMORY| Slab                  1232252       1101116       1240976       1221084
 MEMORY| SReclaimable           279312        259324        280648        270935
 MEMORY| MemLikelyFree        87104004      87071268      88316728      87528100


 *** Fundamental physical constants (SI units) ***

 *** Literature: B. J. Mohr and B. N. Taylor,
 ***             CODATA recommended values of the fundamental physical
 ***             constants: 2006, Web Version 5.1
 ***             http://physics.nist.gov/constants

 Speed of light in vacuum [m/s]                             2.99792458000000E+08
 Magnetic constant or permeability of vacuum [N/A**2]       1.25663706143592E-06
 Electric constant or permittivity of vacuum [F/m]          8.85418781762039E-12
 Planck constant (h) [J*s]                                  6.62606896000000E-34
 Planck constant (h-bar) [J*s]                              1.05457162825177E-34
 Elementary charge [C]                                      1.60217648700000E-19
 Electron mass [kg]                                         9.10938215000000E-31
 Electron g factor [ ]                                     -2.00231930436220E+00
 Proton mass [kg]                                           1.67262163700000E-27
 Fine-structure constant                                    7.29735253760000E-03
 Rydberg constant [1/m]                                     1.09737315685270E+07
 Avogadro constant [1/mol]                                  6.02214179000000E+23
 Boltzmann constant [J/K]                                   1.38065040000000E-23
 Atomic mass unit [kg]                                      1.66053878200000E-27
 Bohr radius [m]                                            5.29177208590000E-11

 *** Conversion factors ***

 [u] -> [a.u.]                                              1.82288848426455E+03
 [Angstrom] -> [Bohr] = [a.u.]                              1.88972613288564E+00
 [a.u.] = [Bohr] -> [Angstrom]                              5.29177208590000E-01
 [a.u.] -> [s]                                              2.41888432650478E-17
 [a.u.] -> [fs]                                             2.41888432650478E-02
 [a.u.] -> [J]                                              4.35974393937059E-18
 [a.u.] -> [N]                                              8.23872205491840E-08
 [a.u.] -> [K]                                              3.15774647902944E+05
 [a.u.] -> [kJ/mol]                                         2.62549961709828E+03
 [a.u.] -> [kcal/mol]                                       6.27509468713739E+02
 [a.u.] -> [Pa]                                             2.94210107994716E+13
 [a.u.] -> [bar]                                            2.94210107994716E+08
 [a.u.] -> [atm]                                            2.90362800883016E+08
 [a.u.] -> [eV]                                             2.72113838565563E+01
 [a.u.] -> [Hz]                                             6.57968392072181E+15
 [a.u.] -> [1/cm] (wave numbers)                            2.19474631370540E+05
 [a.u./Bohr**2] -> [1/cm]                                   5.14048714338585E+03
 

 CELL_TOP| Volume [angstrom^3]:                                     27000.000000
 CELL_TOP| Vector a [angstrom    30.000     0.000     0.000   |a| =    30.000000
 CELL_TOP| Vector b [angstrom     0.000    30.000     0.000   |b| =    30.000000
 CELL_TOP| Vector c [angstrom     0.000     0.000    30.000   |c| =    30.000000
 CELL_TOP| Angle (b,c), alpha [degree]:                                90.000000
 CELL_TOP| Angle (a,c), beta  [degree]:                                90.000000
 CELL_TOP| Angle (a,b), gamma [degree]:                                90.000000
 CELL_TOP| Numerically orthorhombic:                                         YES
 CELL_TOP| Periodicity                                                      NONE

 GENERATE|  Preliminary Number of Bonds generated:                             0
 GENERATE|  Achieved consistency in connectivity generation.

 CELL| Volume [angstrom^3]:                                         27000.000000
 CELL| Vector a [angstrom]:      30.000     0.000     0.000   |a| =    30.000000
 CELL| Vector b [angstrom]:       0.000    30.000     0.000   |b| =    30.000000
 CELL| Vector c [angstrom]:       0.000     0.000    30.000   |c| =    30.000000
 CELL| Angle (b,c), alpha [degree]:                                    90.000000
 CELL| Angle (a,c), beta  [degree]:                                    90.000000
 CELL| Angle (a,b), gamma [degree]:                                    90.000000
 CELL| Numerically orthorhombic:                                             YES
 CELL| Periodicity                                                          NONE

 CELL_REF| Volume [angstrom^3]:                                     27000.000000
 CELL_REF| Vector a [angstrom    30.000     0.000     0.000   |a| =    30.000000
 CELL_REF| Vector b [angstrom     0.000    30.000     0.000   |b| =    30.000000
 CELL_REF| Vector c [angstrom     0.000     0.000    30.000   |c| =    30.000000
 CELL_REF| Angle (b,c), alpha [degree]:                                90.000000
 CELL_REF| Angle (a,c), beta  [degree]:                                90.000000
 CELL_REF| Angle (a,b), gamma [degree]:                                90.000000
 CELL_REF| Numerically orthorhombic:                                         YES
 CELL_REF| Periodicity                                                      NONE

 *******************************************************************************
 *******************************************************************************
 **                                                                           **
 **     #####                         ##              ##                      **
 **    ##   ##            ##          ##              ##                      **
 **   ##     ##                       ##            ######                    **
 **   ##     ##  ##   ##  ##   #####  ##  ##   ####   ##    #####    #####    **
 **   ##     ##  ##   ##  ##  ##      ## ##   ##      ##   ##   ##  ##   ##   **
 **   ##  ## ##  ##   ##  ##  ##      ####     ###    ##   ######   ######    **
 **    ##  ###   ##   ##  ##  ##      ## ##      ##   ##   ##       ##        **
 **     #######   #####   ##   #####  ##  ##  ####    ##    #####   ##        **
 **           ##                                                    ##        **
 **                                                                           **
 **                                                ... make the atoms dance   **
 **                                                                           **
 **            Copyright (C) by CP2K developers group (2000-2025)             **
 **                      J. Chem. Phys. 152, 194103 (2020)                    **
 **                                                                           **
 *******************************************************************************

 DFT| Spin restricted Kohn-Sham (RKS) calculation                            RKS
 DFT| Multiplicity                                                             1
 DFT| Number of spin states                                                    1
 DFT| Charge                                                                   0
 DFT| Self-interaction correction (SIC)                                       NO
 DFT| Cutoffs: density                                              1.000000E-10
 DFT|          gradient                                             1.000000E-10
 DFT|          tau                                                  1.000000E-10
 DFT|          cutoff_smoothing_range                               0.000000E+00
 DFT| XC density smoothing                                                  NONE
 DFT| XC derivatives                                                          PW

 FUNCTIONAL| PBE:
 FUNCTIONAL| J.P.Perdew, K.Burke, M.Ernzerhof, Phys. Rev. Letter, vol. 77, n 18,
 FUNCTIONAL|  pp. 3865-3868, (1996)sx=0.750sc=1.000{spin unpolarized}           


 QS| Method:                                                                GAPW
 QS| Density plane wave grid type                        NON-SPHERICAL FULLSPACE
 QS| Number of grid levels:                                                    4
 QS| Density cutoff [a.u.]:                                                250.0
 QS| Multi grid cutoff [a.u.]: 1) grid level                               250.0
 QS|                           2) grid level                                83.3
 QS|                           3) grid level                                27.8
 QS|                           4) grid level                                 9.3
 QS| Grid level progression factor:                                          3.0
 QS| Relative density cutoff [a.u.]:                                        50.0
 QS| Interaction thresholds: eps_pgf_orb:                                1.0E-12
 QS|                         eps_filter_matrix:                          0.0E+00
 QS|                         eps_core_charge:                            1.0E-14
 QS|                         eps_rho_gspace:                             1.0E-12
 QS|                         eps_rho_rspace:                             1.0E-12
 QS|                         eps_gvg_rspace:                             1.0E-06
 QS|                         eps_ppl:                                    1.0E-02
 QS|                         eps_ppnl:                                   1.0E-08
 QS| GAPW|      One center basis from orbital basis primitives
 QS| GAPW|                   eps_fit:                                    1.0E-04
 QS| GAPW|                   eps_iso:                                    1.0E-12
 QS| GAPW|                   eps_svd:                                    1.0E-08
 QS| GAPW|                   eps_cpc:                                    1.0E-12
 QS| GAPW|   atom-r-grid: quadrature:                                     GC_LOG
 QS| GAPW|      atom-s-grid:  max l :                                          8
 QS| GAPW|      max_l_rho0 :                                                   2


 ATOMIC KIND INFORMATION

  1. Atomic kind: C                                     Number of atoms:       7

     Orbital Basis Set                                               aug-cc-pVQZ

       Number of orbital shell sets:                                          10
       Number of orbital shells:                                              20
       Number of primitive Cartesian functions:                               29
       Number of Cartesian basis functions:                                  105
       Number of spherical basis functions:                                   80
       Norm type:                                                              2

       Normalised Cartesian orbitals:

                        Set   Shell   Orbital            Exponent    Coefficient

                          1       1    1px               0.032180       0.019428
                          1       1    1py               0.032180       0.019428
                          1       1    1pz               0.032180       0.019428

                          2       1    1s                0.041450       0.065472

                          3       1    1dx2              0.076600       0.018357
                          3       1    1dxy              0.076600       0.031796
                          3       1    1dxz              0.076600       0.031796
                          3       1    1dy2              0.076600       0.018357
                          3       1    1dyz              0.076600       0.031796
                          3       1    1dz2              0.076600       0.018357

                          4       1    1px              34.510000       0.000000
                                                         7.915000       0.000000
                                                         2.368000       0.000000
                                                         0.813200       1.100745
                                                         0.289000       0.000000
                                                         0.100700       0.000000
                          4       1    1py              34.510000       0.000000
                                                         7.915000       0.000000
                                                         2.368000       0.000000
                                                         0.813200       1.100745
                                                         0.289000       0.000000
                                                         0.100700       0.000000
                          4       1    1pz              34.510000       0.000000
                                                         7.915000       0.000000
                                                         2.368000       0.000000
                                                         0.813200       1.100745
                                                         0.289000       0.000000
                                                         0.100700       0.000000

                          4       2    2px              34.510000       0.641198
                                                         7.915000       0.683747
                                                         2.368000       0.596637
                                                         0.813200       0.376620
                                                         0.289000       0.140105
                                                         0.100700       0.020217
                          4       2    2py              34.510000       0.641198
                                                         7.915000       0.683747
                                                         2.368000       0.596637
                                                         0.813200       0.376620
                                                         0.289000       0.140105
                                                         0.100700       0.020217
                          4       2    2pz              34.510000       0.641198
                                                         7.915000       0.683747
                                                         2.368000       0.596637
                                                         0.813200       0.376620
                                                         0.289000       0.140105
                                                         0.100700       0.020217

                          4       3    3px              34.510000       0.000000
                                                         7.915000       0.000000
                                                         2.368000       0.000000
                                                         0.813200       0.000000
                                                         0.289000       0.302039
                                                         0.100700       0.000000
                          4       3    3py              34.510000       0.000000
                                                         7.915000       0.000000
                                                         2.368000       0.000000
                                                         0.813200       0.000000
                                                         0.289000       0.302039
                                                         0.100700       0.000000
                          4       3    3pz              34.510000       0.000000
                                                         7.915000       0.000000
                                                         2.368000       0.000000
                                                         0.813200       0.000000
                                                         0.289000       0.302039
                                                         0.100700       0.000000

                          4       4    4px              34.510000       0.000000
                                                         7.915000       0.000000
                                                         2.368000       0.000000
                                                         0.813200       0.000000
                                                         0.289000       0.000000
                                                         0.100700       0.080859
                          4       4    4py              34.510000       0.000000
                                                         7.915000       0.000000
                                                         2.368000       0.000000
                                                         0.813200       0.000000
                                                         0.289000       0.000000
                                                         0.100700       0.080859
                          4       4    4pz              34.510000       0.000000
                                                         7.915000       0.000000
                                                         2.368000       0.000000
                                                         0.813200       0.000000
                                                         0.289000       0.000000
                                                         0.100700       0.080859

                          5       1    1s            33980.000000       0.162319
                                                      5089.000000       0.302313
                                                      1157.000000       0.522143
                                                       326.600000       0.841034
                                                       106.100000       1.247069
                                                        38.110000       1.607436
                                                        14.750000       1.639463
                                                         6.035000       1.095889
                                                         2.530000       0.310322
                                                         0.735500       0.008997
                                                         0.290500      -0.000870
                                                         0.111100       0.000134

                          5       2    2s            33980.000000       0.000000
                                                      5089.000000       0.000000
                                                      1157.000000       0.000000
                                                       326.600000       0.000000
                                                       106.100000       0.000000
                                                        38.110000       0.000000
                                                        14.750000       0.000000
                                                         6.035000       0.000000
                                                         2.530000       0.000000
                                                         0.735500       0.566040
                                                         0.290500       0.000000
                                                         0.111100       0.000000

                          5       3    3s            33980.000000       0.000000
                                                      5089.000000       0.000000
                                                      1157.000000       0.000000
                                                       326.600000       0.000000
                                                       106.100000       0.000000
                                                        38.110000       0.000000
                                                        14.750000       0.000000
                                                         6.035000       0.000000
                                                         2.530000       0.000000
                                                         0.735500       0.000000
                                                         0.290500       0.282013
                                                         0.111100       0.000000

                          5       4    4s            33980.000000      -0.033891
                                                      5089.000000      -0.064843
                                                      1157.000000      -0.110989
                                                       326.600000      -0.182005
                                                       106.100000      -0.271236
                                                        38.110000      -0.373428
                                                        14.750000      -0.413970
                                                         6.035000      -0.388287
                                                         2.530000      -0.168734
                                                         0.735500       0.154985
                                                         0.290500       0.165404
                                                         0.111100       0.039147

                          5       5    5s            33980.000000       0.000000
                                                      5089.000000       0.000000
                                                      1157.000000       0.000000
                                                       326.600000       0.000000
                                                       106.100000       0.000000
                                                        38.110000       0.000000
                                                        14.750000       0.000000
                                                         6.035000       0.000000
                                                         2.530000       0.000000
                                                         0.735500       0.000000
                                                         0.290500       0.000000
                                                         0.111100       0.137150

                          6       1    1fx3              0.187000       0.033853
                          6       1    1fx2y             0.187000       0.075698
                          6       1    1fx2z             0.187000       0.075698
                          6       1    1fxy2             0.187000       0.075698
                          6       1    1fxyz             0.187000       0.131112
                          6       1    1fxz2             0.187000       0.075698
                          6       1    1fy3              0.187000       0.033853
                          6       1    1fy2z             0.187000       0.075698
                          6       1    1fyz2             0.187000       0.075698
                          6       1    1fz3              0.187000       0.033853

                          7       1    1dx2              1.848000       4.821009
                                                         0.649000       0.000000
                                                         0.228000       0.000000
                          7       1    1dxy              1.848000       8.350232
                                                         0.649000       0.000000
                                                         0.228000       0.000000
                          7       1    1dxz              1.848000       8.350232
                                                         0.649000       0.000000
                                                         0.228000       0.000000
                          7       1    1dy2              1.848000       4.821009
                                                         0.649000       0.000000
                                                         0.228000       0.000000
                          7       1    1dyz              1.848000       8.350232
                                                         0.649000       0.000000
                                                         0.228000       0.000000
                          7       1    1dz2              1.848000       4.821009
                                                         0.649000       0.000000
                                                         0.228000       0.000000

                          7       2    2dx2              1.848000       0.000000
                                                         0.649000       0.772392
                                                         0.228000       0.000000
                          7       2    2dxy              1.848000       0.000000
                                                         0.649000       1.337822
                                                         0.228000       0.000000
                          7       2    2dxz              1.848000       0.000000
                                                         0.649000       1.337822
                                                         0.228000       0.000000
                          7       2    2dy2              1.848000       0.000000
                                                         0.649000       0.772392
                                                         0.228000       0.000000
                          7       2    2dyz              1.848000       0.000000
                                                         0.649000       1.337822
                                                         0.228000       0.000000
                          7       2    2dz2              1.848000       0.000000
                                                         0.649000       0.772392
                                                         0.228000       0.000000

                          7       3    3dx2              1.848000       0.000000
                                                         0.649000       0.000000
                                                         0.228000       0.123821
                          7       3    3dxy              1.848000       0.000000
                                                         0.649000       0.000000
                                                         0.228000       0.214465
                          7       3    3dxz              1.848000       0.000000
                                                         0.649000       0.000000
                                                         0.228000       0.214465
                          7       3    3dy2              1.848000       0.000000
                                                         0.649000       0.000000
                                                         0.228000       0.123821
                          7       3    3dyz              1.848000       0.000000
                                                         0.649000       0.000000
                                                         0.228000       0.214465
                          7       3    3dz2              1.848000       0.000000
                                                         0.649000       0.000000
                                                         0.228000       0.123821

                          8       1    1gx4              0.424000       0.105121
                          8       1    1gx3y             0.424000       0.278125
                          8       1    1gx3z             0.424000       0.278125
                          8       1    1gx2y2            0.424000       0.359058
                          8       1    1gx2yz            0.424000       0.621907
                          8       1    1gx2z2            0.424000       0.359058
                          8       1    1gxy3             0.424000       0.278125
                          8       1    1gxy2z            0.424000       0.621907
                          8       1    1gxyz2            0.424000       0.621907
                          8       1    1gxz3             0.424000       0.278125
                          8       1    1gy4              0.424000       0.105121
                          8       1    1gy3z             0.424000       0.278125
                          8       1    1gy2z2            0.424000       0.359058
                          8       1    1gyz3             0.424000       0.278125
                          8       1    1gz4              0.424000       0.105121

                          9       1    1fx3              1.419000       3.235302
                                                         0.485000       0.000000
                          9       1    1fx2y             1.419000       7.234355
                                                         0.485000       0.000000
                          9       1    1fx2z             1.419000       7.234355
                                                         0.485000       0.000000
                          9       1    1fxy2             1.419000       7.234355
                                                         0.485000       0.000000
                          9       1    1fxyz             1.419000      12.530271
                                                         0.485000       0.000000
                          9       1    1fxz2             1.419000       7.234355
                                                         0.485000       0.000000
                          9       1    1fy3              1.419000       3.235302
                                                         0.485000       0.000000
                          9       1    1fy2z             1.419000       7.234355
                                                         0.485000       0.000000
                          9       1    1fyz2             1.419000       7.234355
                                                         0.485000       0.000000
                          9       1    1fz3              1.419000       3.235302
                                                         0.485000       0.000000

                          9       2    2fx3              1.419000       0.000000
                                                         0.485000       0.288984
                          9       2    2fx2y             1.419000       0.000000
                                                         0.485000       0.646187
                          9       2    2fx2z             1.419000       0.000000
                                                         0.485000       0.646187
                          9       2    2fxy2             1.419000       0.000000
                                                         0.485000       0.646187
                          9       2    2fxyz             1.419000       0.000000
                                                         0.485000       1.119229
                          9       2    2fxz2             1.419000       0.000000
                                                         0.485000       0.646187
                          9       2    2fy3              1.419000       0.000000
                                                         0.485000       0.288984
                          9       2    2fy2z             1.419000       0.000000
                                                         0.485000       0.646187
                          9       2    2fyz2             1.419000       0.000000
                                                         0.485000       0.646187
                          9       2    2fz3              1.419000       0.000000
                                                         0.485000       0.288984

                         10       1    1gx4              1.011000       1.146835
                         10       1    1gx3y             1.011000       3.034241
                         10       1    1gx3z             1.011000       3.034241
                         10       1    1gx2y2            1.011000       3.917189
                         10       1    1gx2yz            1.011000       6.784770
                         10       1    1gx2z2            1.011000       3.917189
                         10       1    1gxy3             1.011000       3.034241
                         10       1    1gxy2z            1.011000       6.784770
                         10       1    1gxyz2            1.011000       6.784770
                         10       1    1gxz3             1.011000       3.034241
                         10       1    1gy4              1.011000       1.146835
                         10       1    1gy3z             1.011000       3.034241
                         10       1    1gy2z2            1.011000       3.917189
                         10       1    1gyz3             1.011000       3.034241
                         10       1    1gz4              1.011000       1.146835

     RI Auxiliary Basis Set                                    aug-cc-pVQZ-OPTRI

       Number of orbital shell sets:                                          19
       Number of orbital shells:                                              19
       Number of primitive Cartesian functions:                               19
       Number of Cartesian basis functions:                                  124
       Number of spherical basis functions:                                   89
       Norm type:                                                              2

       Normalised Cartesian orbitals:

                        Set   Shell   Orbital            Exponent    Coefficient

                          1       1    1px               0.047059       0.031242
                          1       1    1py               0.047059       0.031242
                          1       1    1pz               0.047059       0.031242

                          2       1    1s                0.062311       0.088886

                          3       1    1px               0.069085       0.050486
                          3       1    1py               0.069085       0.050486
                          3       1    1pz               0.069085       0.050486

                          4       1    1dx2              0.114693       0.037205
                          4       1    1dxy              0.114693       0.064441
                          4       1    1dxz              0.114693       0.064441
                          4       1    1dy2              0.114693       0.037205
                          4       1    1dyz              0.114693       0.064441
                          4       1    1dz2              0.114693       0.037205

                          5       1    1px               0.151311       0.134517
                          5       1    1py               0.151311       0.134517
                          5       1    1pz               0.151311       0.134517

                          6       1    1s                0.165868       0.185239

                          7       1    1fx3              0.314425       0.108985
                          7       1    1fx2y             0.314425       0.243699
                          7       1    1fx2z             0.314425       0.243699
                          7       1    1fxy2             0.314425       0.243699
                          7       1    1fxyz             0.314425       0.422098
                          7       1    1fxz2             0.314425       0.243699
                          7       1    1fy3              0.314425       0.108985
                          7       1    1fy2z             0.314425       0.243699
                          7       1    1fyz2             0.314425       0.243699
                          7       1    1fz3              0.314425       0.108985

                          8       1    1dx2              0.339088       0.248003
                          8       1    1dxy              0.339088       0.429553
                          8       1    1dxz              0.339088       0.429553
                          8       1    1dy2              0.339088       0.248003
                          8       1    1dyz              0.339088       0.429553
                          8       1    1dz2              0.339088       0.248003

                          9       1    1s                0.432835       0.380322

                         10       1    1gx4              0.675927       0.379018
                         10       1    1gx3y             0.675927       1.002787
                         10       1    1gx3z             0.675927       1.002787
                         10       1    1gx2y2            0.675927       1.294593
                         10       1    1gx2yz            0.675927       2.242301
                         10       1    1gx2z2            0.675927       1.294593
                         10       1    1gxy3             0.675927       1.002787
                         10       1    1gxy2z            0.675927       2.242301
                         10       1    1gxyz2            0.675927       2.242301
                         10       1    1gxz3             0.675927       1.002787
                         10       1    1gy4              0.675927       0.379018
                         10       1    1gy3z             0.675927       1.002787
                         10       1    1gy2z2            0.675927       1.294593
                         10       1    1gyz3             0.675927       1.002787
                         10       1    1gz4              0.675927       0.379018

                         11       1    1fx3              0.726248       0.716796
                         11       1    1fx2y             0.726248       1.602805
                         11       1    1fx2z             0.726248       1.602805
                         11       1    1fxy2             0.726248       1.602805
                         11       1    1fxyz             0.726248       2.776139
                         11       1    1fxz2             0.726248       1.602805
                         11       1    1fy3              0.726248       0.716796
                         11       1    1fy2z             0.726248       1.602805
                         11       1    1fyz2             0.726248       1.602805
                         11       1    1fz3              0.726248       0.716796

                         12       1    1hx5              1.155657       1.187239
                         12       1    1hx4y             1.155657       3.561718
                         12       1    1hx4z             1.155657       3.561718
                         12       1    1hx3y2            1.155657       5.440614
                         12       1    1hx3yz            1.155657       9.423420
                         12       1    1hx3z2            1.155657       5.440614
                         12       1    1hx2y3            1.155657       5.440614
                         12       1    1hx2y2z           1.155657      12.165583
                         12       1    1hx2yz2           1.155657      12.165583
                         12       1    1hx2z3            1.155657       5.440614
                         12       1    1hxy4             1.155657       3.561718
                         12       1    1hxy3z            1.155657       9.423420
                         12       1    1hxy2z2           1.155657      12.165583
                         12       1    1hxyz3            1.155657       9.423420
                         12       1    1hxz4             1.155657       3.561718
                         12       1    1hy5              1.155657       1.187239
                         12       1    1hy4z             1.155657       3.561718
                         12       1    1hy3z2            1.155657       5.440614
                         12       1    1hy2z3            1.155657       5.440614
                         12       1    1hyz4             1.155657       3.561718
                         12       1    1hz5              1.155657       1.187239

                         13       1    1px               1.221757       1.830927
                         13       1    1py               1.221757       1.830927
                         13       1    1pz               1.221757       1.830927

                         14       1    1dx2              1.234971       2.381271
                         14       1    1dxy              1.234971       4.124482
                         14       1    1dxz              1.234971       4.124482
                         14       1    1dy2              1.234971       2.381271
                         14       1    1dyz              1.234971       4.124482
                         14       1    1dz2              1.234971       2.381271

                         15       1    1s                1.924328       1.164446

                         16       1    1gx4              2.190809       9.618290
                         16       1    1gx3y             2.190809      25.447602
                         16       1    1gx3z             2.190809      25.447602
                         16       1    1gx2y2            2.190809      32.852713
                         16       1    1gx2yz            2.190809      56.902568
                         16       1    1gx2z2            2.190809      32.852713
                         16       1    1gxy3             2.190809      25.447602
                         16       1    1gxy2z            2.190809      56.902568
                         16       1    1gxyz2            2.190809      56.902568
                         16       1    1gxz3             2.190809      25.447602
                         16       1    1gy4              2.190809       9.618290
                         16       1    1gy3z             2.190809      25.447602
                         16       1    1gy2z2            2.190809      32.852713
                         16       1    1gyz3             2.190809      25.447602
                         16       1    1gz4              2.190809       9.618290

                         17       1    1dx2              3.110401      11.990523
                         17       1    1dxy              3.110401      20.768195
                         17       1    1dxz              3.110401      20.768195
                         17       1    1dy2              3.110401      11.990523
                         17       1    1dyz              3.110401      20.768195
                         17       1    1dz2              3.110401      11.990523

                         18       1    1px               3.134944       5.946033
                         18       1    1py               3.134944       5.946033
                         18       1    1pz               3.134944       5.946033

                         19       1    1fx3              3.452225      23.915387
                         19       1    1fx2y             3.452225      53.476431
                         19       1    1fx2z             3.452225      53.476431
                         19       1    1fxy2             3.452225      53.476431
                         19       1    1fxyz             3.452225      92.623895
                         19       1    1fxz2             3.452225      53.476431
                         19       1    1fy3              3.452225      23.915387
                         19       1    1fy2z             3.452225      53.476431
                         19       1    1fyz2             3.452225      53.476431
                         19       1    1fz3              3.452225      23.915387

       Atomic covalent radius [Angstrom]:                                  0.770

       Atomic van der Waals radius [Angstrom]:                             1.700

     The atoms of this atomic kind are PAW atoms (GAPW):
       Hard Gaussian function radius:                                      1.512
       Rho0 radius:                                                        1.512
       Maximum GTO radius used for PAW projector construction:            24.566

     GAPW Soft Basis Set                                        aug-cc-pVQZ_soft

       Number of orbital shell sets:                                          10
       Number of orbital shells:                                              20
       Number of primitive Cartesian functions:                               19
       Number of Cartesian basis functions:                                  105
       Number of spherical basis functions:                                   80
       Norm type:                                                              2

       Normalised Cartesian orbitals:

                        Set   Shell   Orbital            Exponent    Coefficient

                          1       1    1px               0.032180       0.019428
                          1       1    1py               0.032180       0.019428
                          1       1    1pz               0.032180       0.019428

                          2       1    1s                0.041450       0.065472

                          3       1    1dx2              0.076600       0.018357
                          3       1    1dxy              0.076600       0.031796
                          3       1    1dxz              0.076600       0.031796
                          3       1    1dy2              0.076600       0.018357
                          3       1    1dyz              0.076600       0.031796
                          3       1    1dz2              0.076600       0.018357

                          4       1    1px               2.368000       0.000000
                                                         0.813200       1.100745
                                                         0.289000       0.000000
                                                         0.100700       0.000000
                          4       1    1py               2.368000       0.000000
                                                         0.813200       1.100745
                                                         0.289000       0.000000
                                                         0.100700       0.000000
                          4       1    1pz               2.368000       0.000000
                                                         0.813200       1.100745
                                                         0.289000       0.000000
                                                         0.100700       0.000000

                          4       2    2px               2.368000       0.596637
                                                         0.813200       0.376620
                                                         0.289000       0.140105
                                                         0.100700       0.020217
                          4       2    2py               2.368000       0.596637
                                                         0.813200       0.376620
                                                         0.289000       0.140105
                                                         0.100700       0.020217
                          4       2    2pz               2.368000       0.596637
                                                         0.813200       0.376620
                                                         0.289000       0.140105
                                                         0.100700       0.020217

                          4       3    3px               2.368000       0.000000
                                                         0.813200       0.000000
                                                         0.289000       0.302039
                                                         0.100700       0.000000
                          4       3    3py               2.368000       0.000000
                                                         0.813200       0.000000
                                                         0.289000       0.302039
                                                         0.100700       0.000000
                          4       3    3pz               2.368000       0.000000
                                                         0.813200       0.000000
                                                         0.289000       0.302039
                                                         0.100700       0.000000

                          4       4    4px               2.368000       0.000000
                                                         0.813200       0.000000
                                                         0.289000       0.000000
                                                         0.100700       0.080859
                          4       4    4py               2.368000       0.000000
                                                         0.813200       0.000000
                                                         0.289000       0.000000
                                                         0.100700       0.080859
                          4       4    4pz               2.368000       0.000000
                                                         0.813200       0.000000
                                                         0.289000       0.000000
                                                         0.100700       0.080859

                          5       1    1s                2.530000       0.310322
                                                         0.735500       0.008997
                                                         0.290500      -0.000870
                                                         0.111100       0.000134

                          5       2    2s                2.530000       0.000000
                                                         0.735500       0.566040
                                                         0.290500       0.000000
                                                         0.111100       0.000000

                          5       3    3s                2.530000       0.000000
                                                         0.735500       0.000000
                                                         0.290500       0.282013
                                                         0.111100       0.000000

                          5       4    4s                2.530000      -0.168734
                                                         0.735500       0.154985
                                                         0.290500       0.165404
                                                         0.111100       0.039147

                          5       5    5s                2.530000       0.000000
                                                         0.735500       0.000000
                                                         0.290500       0.000000
                                                         0.111100       0.137150

                          6       1    1fx3              0.187000       0.033853
                          6       1    1fx2y             0.187000       0.075698
                          6       1    1fx2z             0.187000       0.075698
                          6       1    1fxy2             0.187000       0.075698
                          6       1    1fxyz             0.187000       0.131112
                          6       1    1fxz2             0.187000       0.075698
                          6       1    1fy3              0.187000       0.033853
                          6       1    1fy2z             0.187000       0.075698
                          6       1    1fyz2             0.187000       0.075698
                          6       1    1fz3              0.187000       0.033853

                          7       1    1dx2              1.848000       4.821009
                                                         0.649000       0.000000
                                                         0.228000       0.000000
                          7       1    1dxy              1.848000       8.350232
                                                         0.649000       0.000000
                                                         0.228000       0.000000
                          7       1    1dxz              1.848000       8.350232
                                                         0.649000       0.000000
                                                         0.228000       0.000000
                          7       1    1dy2              1.848000       4.821009
                                                         0.649000       0.000000
                                                         0.228000       0.000000
                          7       1    1dyz              1.848000       8.350232
                                                         0.649000       0.000000
                                                         0.228000       0.000000
                          7       1    1dz2              1.848000       4.821009
                                                         0.649000       0.000000
                                                         0.228000       0.000000

                          7       2    2dx2              1.848000       0.000000
                                                         0.649000       0.772392
                                                         0.228000       0.000000
                          7       2    2dxy              1.848000       0.000000
                                                         0.649000       1.337822
                                                         0.228000       0.000000
                          7       2    2dxz              1.848000       0.000000
                                                         0.649000       1.337822
                                                         0.228000       0.000000
                          7       2    2dy2              1.848000       0.000000
                                                         0.649000       0.772392
                                                         0.228000       0.000000
                          7       2    2dyz              1.848000       0.000000
                                                         0.649000       1.337822
                                                         0.228000       0.000000
                          7       2    2dz2              1.848000       0.000000
                                                         0.649000       0.772392
                                                         0.228000       0.000000

                          7       3    3dx2              1.848000       0.000000
                                                         0.649000       0.000000
                                                         0.228000       0.123821
                          7       3    3dxy              1.848000       0.000000
                                                         0.649000       0.000000
                                                         0.228000       0.214465
                          7       3    3dxz              1.848000       0.000000
                                                         0.649000       0.000000
                                                         0.228000       0.214465
                          7       3    3dy2              1.848000       0.000000
                                                         0.649000       0.000000
                                                         0.228000       0.123821
                          7       3    3dyz              1.848000       0.000000
                                                         0.649000       0.000000
                                                         0.228000       0.214465
                          7       3    3dz2              1.848000       0.000000
                                                         0.649000       0.000000
                                                         0.228000       0.123821

                          8       1    1gx4              0.424000       0.105121
                          8       1    1gx3y             0.424000       0.278125
                          8       1    1gx3z             0.424000       0.278125
                          8       1    1gx2y2            0.424000       0.359058
                          8       1    1gx2yz            0.424000       0.621907
                          8       1    1gx2z2            0.424000       0.359058
                          8       1    1gxy3             0.424000       0.278125
                          8       1    1gxy2z            0.424000       0.621907
                          8       1    1gxyz2            0.424000       0.621907
                          8       1    1gxz3             0.424000       0.278125
                          8       1    1gy4              0.424000       0.105121
                          8       1    1gy3z             0.424000       0.278125
                          8       1    1gy2z2            0.424000       0.359058
                          8       1    1gyz3             0.424000       0.278125
                          8       1    1gz4              0.424000       0.105121

                          9       1    1fx3              1.419000       3.235302
                                                         0.485000       0.000000
                          9       1    1fx2y             1.419000       7.234355
                                                         0.485000       0.000000
                          9       1    1fx2z             1.419000       7.234355
                                                         0.485000       0.000000
                          9       1    1fxy2             1.419000       7.234355
                                                         0.485000       0.000000
                          9       1    1fxyz             1.419000      12.530271
                                                         0.485000       0.000000
                          9       1    1fxz2             1.419000       7.234355
                                                         0.485000       0.000000
                          9       1    1fy3              1.419000       3.235302
                                                         0.485000       0.000000
                          9       1    1fy2z             1.419000       7.234355
                                                         0.485000       0.000000
                          9       1    1fyz2             1.419000       7.234355
                                                         0.485000       0.000000
                          9       1    1fz3              1.419000       3.235302
                                                         0.485000       0.000000

                          9       2    2fx3              1.419000       0.000000
                                                         0.485000       0.288984
                          9       2    2fx2y             1.419000       0.000000
                                                         0.485000       0.646187
                          9       2    2fx2z             1.419000       0.000000
                                                         0.485000       0.646187
                          9       2    2fxy2             1.419000       0.000000
                                                         0.485000       0.646187
                          9       2    2fxyz             1.419000       0.000000
                                                         0.485000       1.119229
                          9       2    2fxz2             1.419000       0.000000
                                                         0.485000       0.646187
                          9       2    2fy3              1.419000       0.000000
                                                         0.485000       0.288984
                          9       2    2fy2z             1.419000       0.000000
                                                         0.485000       0.646187
                          9       2    2fyz2             1.419000       0.000000
                                                         0.485000       0.646187
                          9       2    2fz3              1.419000       0.000000
                                                         0.485000       0.288984

                         10       1    1gx4              1.011000       1.146835
                         10       1    1gx3y             1.011000       3.034241
                         10       1    1gx3z             1.011000       3.034241
                         10       1    1gx2y2            1.011000       3.917189
                         10       1    1gx2yz            1.011000       6.784770
                         10       1    1gx2z2            1.011000       3.917189
                         10       1    1gxy3             1.011000       3.034241
                         10       1    1gxy2z            1.011000       6.784770
                         10       1    1gxyz2            1.011000       6.784770
                         10       1    1gxz3             1.011000       3.034241
                         10       1    1gy4              1.011000       1.146835
                         10       1    1gy3z             1.011000       3.034241
                         10       1    1gy2z2            1.011000       3.917189
                         10       1    1gyz3             1.011000       3.034241
                         10       1    1gz4              1.011000       1.146835

     AE Potential information for                                            ALL

       Description:                                       All-electron potential
                                          Krack, Parrinello, PCCP 2, 2105 (2000)

       Gaussian exponent of the core charge distribution:               4.109048
       Electronic configuration (s p d ...):                           4   2   0

  2. Atomic kind: H                                     Number of atoms:       4

     Orbital Basis Set                                               aug-cc-pVQZ

       Number of orbital shell sets:                                           8
       Number of orbital shells:                                              14
       Number of primitive Cartesian functions:                               16
       Number of Cartesian basis functions:                                   55
       Number of spherical basis functions:                                   46
       Norm type:                                                              2

       Normalised Cartesian orbitals:

                        Set   Shell   Orbital            Exponent    Coefficient

                          1       1    1s                0.023630       0.042954

                          2       1    1px               0.084800       0.065228
                          2       1    1py               0.084800       0.065228
                          2       1    1pz               0.084800       0.065228

                          3       1    1s               82.640000       0.000000
                                                        12.410000       0.000000
                                                         2.824000       0.000000
                                                         0.797700       0.601575
                                                         0.258100       0.000000
                                                         0.089890       0.000000

                          3       2    2s               82.640000       0.000000
                                                        12.410000       0.000000
                                                         2.824000       0.000000
                                                         0.797700       0.000000
                                                         0.258100       0.258078
                                                         0.089890       0.000000

                          3       3    3s               82.640000       0.039186
                                                        12.410000       0.072302
                                                         2.824000       0.117344
                                                         0.797700       0.154530
                                                         0.258100       0.128360
                                                         0.089890       0.034648

                          3       4    4s               82.640000       0.000000
                                                        12.410000       0.000000
                                                         2.824000       0.000000
                                                         0.797700       0.000000
                                                         0.258100       0.000000
                                                         0.089890       0.117002

                          4       1    1dx2              0.190000       0.089997
                          4       1    1dxy              0.190000       0.155879
                          4       1    1dxz              0.190000       0.155879
                          4       1    1dy2              0.190000       0.089997
                          4       1    1dyz              0.190000       0.155879
                          4       1    1dz2              0.190000       0.089997

                          5       1    1px               2.292000       4.019836
                                                         0.838000       0.000000
                                                         0.292000       0.000000
                          5       1    1py               2.292000       4.019836
                                                         0.838000       0.000000
                                                         0.292000       0.000000
                          5       1    1pz               2.292000       4.019836
                                                         0.838000       0.000000
                                                         0.292000       0.000000

                          5       2    2px               2.292000       0.000000
                                                         0.838000       1.142865
                                                         0.292000       0.000000
                          5       2    2py               2.292000       0.000000
                                                         0.838000       1.142865
                                                         0.292000       0.000000
                          5       2    2pz               2.292000       0.000000
                                                         0.838000       1.142865
                                                         0.292000       0.000000

                          5       3    3px               2.292000       0.000000
                                                         0.838000       0.000000
                                                         0.292000       0.305963
                          5       3    3py               2.292000       0.000000
                                                         0.838000       0.000000
                                                         0.292000       0.305963
                          5       3    3pz               2.292000       0.000000
                                                         0.838000       0.000000
                                                         0.292000       0.305963

                          6       1    1fx3              0.360000       0.147787
                          6       1    1fx2y             0.360000       0.330461
                          6       1    1fx2z             0.360000       0.330461
                          6       1    1fxy2             0.360000       0.330461
                          6       1    1fxyz             0.360000       0.572375
                          6       1    1fxz2             0.360000       0.330461
                          6       1    1fy3              0.360000       0.147787
                          6       1    1fy2z             0.360000       0.330461
                          6       1    1fyz2             0.360000       0.330461
                          6       1    1fz3              0.360000       0.147787

                          7       1    1dx2              2.062000       5.840024
                                                         0.662000       0.000000
                          7       1    1dxy              2.062000      10.115218
                                                         0.662000       0.000000
                          7       1    1dxz              2.062000      10.115218
                                                         0.662000       0.000000
                          7       1    1dy2              2.062000       5.840024
                                                         0.662000       0.000000
                          7       1    1dyz              2.062000      10.115218
                                                         0.662000       0.000000
                          7       1    1dz2              2.062000       5.840024
                                                         0.662000       0.000000

                          7       2    2dx2              2.062000       0.000000
                                                         0.662000       0.799670
                          7       2    2dxy              2.062000       0.000000
                                                         0.662000       1.385069
                          7       2    2dxz              2.062000       0.000000
                                                         0.662000       1.385069
                          7       2    2dy2              2.062000       0.000000
                                                         0.662000       0.799670
                          7       2    2dyz              2.062000       0.000000
                                                         0.662000       1.385069
                          7       2    2dz2              2.062000       0.000000
                                                         0.662000       0.799670

                          8       1    1fx3              1.397000       3.123535
                          8       1    1fx2y             1.397000       6.984436
                          8       1    1fx2z             1.397000       6.984436
                          8       1    1fxy2             1.397000       6.984436
                          8       1    1fxyz             1.397000      12.097399
                          8       1    1fxz2             1.397000       6.984436
                          8       1    1fy3              1.397000       3.123535
                          8       1    1fy2z             1.397000       6.984436
                          8       1    1fyz2             1.397000       6.984436
                          8       1    1fz3              1.397000       3.123535

     RI Auxiliary Basis Set                                    aug-cc-pVQZ-OPTRI

       Number of orbital shell sets:                                          15
       Number of orbital shells:                                              15
       Number of primitive Cartesian functions:                               15
       Number of Cartesian basis functions:                                   84
       Number of spherical basis functions:                                   63
       Norm type:                                                              2

       Normalised Cartesian orbitals:

                        Set   Shell   Orbital            Exponent    Coefficient

                          1       1    1s                0.172202       0.190519

                          2       1    1dx2              0.411937       0.348629
                          2       1    1dxy              0.411937       0.603843
                          2       1    1dxz              0.411937       0.603843
                          2       1    1dy2              0.411937       0.348629
                          2       1    1dyz              0.411937       0.603843
                          2       1    1dz2              0.411937       0.348629

                          3       1    1s                0.462666       0.399817

                          4       1    1px               0.544212       0.666270
                          4       1    1py               0.544212       0.666270
                          4       1    1pz               0.544212       0.666270

                          5       1    1fx3              0.798039       0.886153
                          5       1    1fx2y             0.798039       1.981498
                          5       1    1fx2z             0.798039       1.981498
                          5       1    1fxy2             0.798039       1.981498
                          5       1    1fxyz             0.798039       3.432056
                          5       1    1fxz2             0.798039       1.981498
                          5       1    1fy3              0.798039       0.886153
                          5       1    1fy2z             0.798039       1.981498
                          5       1    1fyz2             0.798039       1.981498
                          5       1    1fz3              0.798039       0.886153

                          6       1    1gx4              1.030651       1.209184
                          6       1    1gx3y             1.030651       3.199200
                          6       1    1gx3z             1.030651       3.199200
                          6       1    1gx2y2            1.030651       4.130150
[...]
 https://doi.org/10.1063/1.2335442

 M. Iannuzzi, T. Chassaing, T. Wallman, J. Hutter.
 CHIMIA 59, 499-503 (2005).
 Ground and excited state density functional calculations with the Gaussian and 
 augmented-plane-wave method.
 https://doi.org/10.2533/000942905777676164

 M. Frigo, S. G. Johnson.
 Proc. IEEE 93, 216-231 (2005).
 The design and implementation of FFTW3.
 https://doi.org/10.1109/JPROC.2004.840301

 R. L. Martin.
 J. Chem. Phys. 118, 4775-4777 (2003).
 Natural transition orbitals.
 https://doi.org/10.1063/1.1558471

 M. Krack, M. Parrinello.
 Phys. Chem. Chem. Phys. 2, 2105-2112 (2000).
 All-electron ab-initio molecular dynamics.
 https://doi.org/10.1039/b001167n

 G. Lippert, J. Hutter, M. Parrinello.
 Theor. Chem. Acc. 103, 124-140 (1999).
 The Gaussian and augmented-plane-wave density functional method for ab initio 
 molecular dynamics simulations.
 https://doi.org/10.1007/s002140050523

 J. P. Perdew, K. Burke, M. Ernzerhof.
 Phys. Rev. Lett. 77, 3865-3868 (1996).
 Generalized gradient approximation made simple.
 https://doi.org/10.1103/PhysRevLett.77.3865


 -------------------------------------------------------------------------------
 -                                                                             -
 -                                T I M I N G                                  -
 -                                                                             -
 -------------------------------------------------------------------------------
 SUBROUTINE                       CALLS  ASD         SELF TIME        TOTAL TIME
                                MAXIMUM       AVERAGE  MAXIMUM  AVERAGE  MAXIMUM
 CP2K                                 1  1.0    0.224    0.269 1333.119 1333.119
 qs_energies                          1  2.0    0.000    0.001 1330.945 1330.945
 qs_energies_properties               1  3.0    0.000    0.000  885.238  885.238
 tddfpt                               1  4.0    0.000    0.001  885.238  885.238
 tddfpt_energies                      1  5.0    0.000    0.001  884.923  884.923
 tddfpt_davidson_solver               1  6.0    0.003    0.005  878.469  878.469
 integrate_four_center              446  9.8   13.229   22.794  877.765  877.975
 tddfpt_compute_Aop_evects            9  7.0    0.000    0.000  875.128  875.130
 integrate_four_center_main         446 10.8   11.084   25.715  779.383  800.461
 integrate_four_center_bin        68641 11.8  768.298  790.331  768.298  790.331
 tddfpt_apply_hfx                     9  8.0    0.004    0.005  598.018  598.018
 tddft_hfx_matrix                   360  9.0    0.012    0.013  593.182  593.356
 scf_env_do_scf                       1  3.0    0.000    0.000  439.469  439.484
 scf_env_do_scf_inner_loop           86  4.0    0.003    0.006  439.468  439.484
 qs_ks_update_qs_env                 86  5.0    0.001    0.001  384.128  384.245
 rebuild_ks_matrix                   86  6.0    0.000    0.000  384.114  384.229
 qs_ks_build_kohn_sham_matrix        86  7.0    0.013    0.015  384.114  384.228
 hfx_ks_matrix                       86  8.0    0.004    0.004  284.612  284.677
 fhxc_kernel                          9  8.0    0.008    0.009  275.684  275.686
 pw_poisson_solve                   266  9.4    2.701    3.654  118.484  119.933
 tddfpt_apply_coulomb               180  9.0    0.003    0.004  110.313  111.846
 fft_wrap_pw1pw2                   5420 11.0    0.089    0.112   94.810   96.670
 fft_wrap_pw1pw2_250               3818 12.1    3.423    3.821   91.349   93.165
 fft3d_ps                          5420 13.0   18.861   21.985   84.929   86.915
 qs_rho_update_rho_low              268  7.7    0.004    0.004   80.286   80.308
 integrate_v_rspace                 266  9.0    0.007    0.008   72.578   72.843
 calculate_rho_elec                 268  8.7    0.981    1.239   72.815   72.838
 ps_wavelet_solve                   266 10.4   43.134   52.589   70.734   71.935
 mp_alltoall_z22v                  5420 15.0   63.139   65.838   63.139   65.838
 mp_alltoall_d11v                 16168 11.6   49.553   59.632   49.553   59.632
 density_rs2pw                      268  9.7    0.013    0.015   49.181   56.307
 transfer_rs2pw                    1340 10.7    0.024    0.035   42.496   49.708
 prepare_gapw_den                   267  8.7    0.007    0.009   48.985   49.021
 mp_alltoall_d54                    266 11.4   13.360   48.576   13.360   48.576
 mp_sync                           2375 11.5   32.456   47.115   32.456   47.115
 rs_gather_matrices                 266 10.0    0.050    0.109   40.982   46.481
 grid_integrate_task_list           266 10.0    5.487   45.400    5.487   45.400
 x_to_yz                           2484 13.7    1.392    1.844   43.515   45.323
 grid_collocate_task_list           268  9.7   21.014   44.134   21.014   44.134
 mp_waitany                       61982 12.7   34.790   43.222   34.790   43.222
 transfer_rs2pw_250                 536 11.7    2.461    2.890   28.336   36.551
 gaVxcgb_GC                         798  9.7    1.660   30.063    1.660   30.063
 calculate_rho_atom                1068  9.7    9.115   30.042    9.115   30.042
 xc_pw_derive                      1599 11.0    0.011    0.013   28.377   28.638
 calc_screening_functions             1 10.0   20.977   21.976   26.882   27.946
 potential_pw2rs                    266 10.0    0.084    0.092   26.102   26.359
 calculate_xc_2nd_deriv_atom        180  9.0    0.249    4.321    1.418   25.243
 mp_waitall_1                    364112 13.3   20.715   25.080   20.715   25.080
 mp_sum_dv                        47173  8.8   22.793   24.444   22.793   24.444
 transfer_pw2rs                    1331 10.9    0.018    0.022   23.369   23.995
 tddfpt_apply_xc_analytic           180  9.0    0.069    0.080   23.061   23.237
 yz_to_x                           2402 14.3    1.042    1.133   22.012   22.973
 sum_up_and_integrate                86  8.0    0.001    0.002   22.887   22.949
 cp_fm_syevd                        138  7.2    0.001    0.002   21.337   21.392
 cp_fm_redistribute_end             138  8.2   10.634   21.156   10.655   21.162
 cp_fm_syevd_base                   138  8.2   10.463   20.978   10.463   20.978
 integrate_vhg0_rspace              266  9.4    4.138    4.358   20.536   20.714
 qs_scf_new_mos                      86  5.0    0.001    0.002   19.683   19.780
 xc_pw_divergence                   266 10.7    0.005    0.006   18.683   18.901
 eigensolver_symm                    86  6.0    0.004    0.005   18.395   18.416
 mp_sum_d                         17771  7.2   17.057   18.360   17.057   18.360
 mp_sum_dm                        15357  9.9   17.539   18.215   17.539   18.215
 mp_alltoall_d45                    267 11.4   13.826   17.848   13.826   17.848
 xc_calc_2nd_deriv_analytical      1260 10.2    0.532    0.665   13.216   13.332
 qs_vxc_create                       86  8.0    0.001    0.001   12.455   12.456
 xc_vxc_pw_create                    86  9.0    0.340    0.432   12.454   12.455
 integrate_four_center_getP         446 10.8    1.624    2.000   11.216   11.459
 calculate_vxc_atom                  86  8.0    0.103    1.079   10.937   10.938
 transfer_rs2pw_90                  268 11.7    0.473    0.550    4.417   10.874
 transfer_pw2rs_250                 533 11.7    3.010    3.448   10.087   10.732
 mp_isendrecv_dv                 180848 12.3    3.271   10.503    3.271   10.503
 put_rho0_on_grid                   267  9.7    1.031    1.388   10.317   10.353
 powell_optimize                3931382 11.0    9.739   10.128    9.739   10.128
 gspace_mixing                       85  5.0    0.310    0.392    9.889    9.890
 cp_dbcsr_sm_fm_multiply           1126  8.6    0.026    0.030    9.432    9.827
 integrate_four_center_dist_KS      446 10.8    0.683    0.745    9.480    9.501
 transfer_pw2rs_30                  266 12.0    5.216    6.073    9.229    9.469
 calculate_rho0_atom               1068  9.7    7.998    8.578    7.998    8.578
 transfer_rs2pw_30                  268 11.7    2.921    3.225    8.246    8.458
 broyden_mixing                      85  6.0    7.528    7.959    7.866    8.136
 calculate_rho_atom_coeff           268  8.7    0.648    0.837    7.467    7.471
 mp_sendrecv_dv                   68072 12.7    6.298    6.660    6.298    6.660
 xc_rho_set_and_dset_create          87 10.0    0.231    0.271    5.766    6.343
 dbcsr_complete_redistribute       3797 10.4    0.266    0.398    5.680    6.064
 tddfpt_print_nto_analysis            1  6.0    0.003    0.003    5.666    5.666
 calc_pair_dist_radii                 1 10.0    1.622    1.664    5.456    5.620
 qs_energies_init_hamiltonians        1  3.0    0.000    0.000    5.536    5.536
 build_core_hamiltonian_matrix        1  4.0    0.000    0.000    5.525    5.525
 overlap_condnum                      1  5.0    0.000    0.000    5.498    5.512
 dbcsr_multiply_generic            1572 10.3    0.077    0.084    4.859    5.220
 arnoldi_conjugate_gradient           5  6.0    0.070    0.086    5.219    5.219
 cp_fm_geeig                         20  7.0    0.001    0.001    5.053    5.056
 copy_fm_to_dbcsr                  2559  9.5    0.014    0.015    4.096    4.484
 mp_isend_dm3                     10686 12.7    1.466    4.403    1.466    4.403
 cp_dbcsr_sm_fm_multiply_core      1126  9.6    0.004    0.004    3.668    4.008
 copy_dbcsr_to_fm                  1236  9.3    0.018    0.020    3.661    3.958
 cp2k_distribution_to_z_slices      266 10.4    1.929    2.159    3.492    3.730
 pw_scatter_p                      2750 12.8    3.236    3.454    3.236    3.454
 Vh_1c_gg_integrals                 266  9.4    0.215    3.144    3.291    3.388
 multiply_cannon                   1572 11.3    0.160    0.168    2.925    3.313
 transfer_pw2rs_90                  266 12.0    0.437    0.479    2.594    3.092
 dbcsr_sym_matrix_vector_mult     10015  7.0    0.165    0.176    2.933    3.017
 multiply_cannon_loop              1572 12.3    0.251    0.278    2.451    2.844
 fft_wrap_pw1pw2_90                 534 11.8    0.104    0.118    2.323    2.416
 dbcsr_add_d                      15091  7.0    0.014    0.017    0.349    2.406
 dbcsr_add_anytype                15091  8.0    0.025    0.172    0.335    2.390
 mp_alltoall_i22                   5034 11.4    1.706    2.264    1.706    2.264
 dbcsr_desymmetrize_deep           1237 10.3    0.029    0.041    1.832    2.128
 mp_sum_l                          6040 10.5    1.438    2.109    1.438    2.109
 update_ks_atom                     266  8.7    0.525    0.904    1.716    2.106
 cp_dbcsr_plus_fm_fm_t              266  8.4    0.005    0.005    1.933    2.001
 parallel_gemm_fm                  1686  8.2    0.003    0.003    1.902    1.957
 parallel_gemm_fm_gemm             1686  9.2    0.003    0.003    1.900    1.955
 cp_fm_gemm                        1686 10.2    1.897    1.952    1.897    1.952
 multiply_cannon_metrocomm3       25152 13.3    0.076    0.080    1.294    1.908
 mp_alltoall_i11v                 12628 11.4    1.889    1.896    1.889    1.896
 integrate_four_center_load         446 10.8    0.002    0.003    1.209    1.879
 hfx_load_balance                     1 11.0    0.000    0.000    1.207    1.877
 tddfpt_orthonormalize_psi1_psi      10  6.9    0.024    0.026    1.838    1.840
 pw_gather_p                       2670 13.3    1.708    1.834    1.708    1.834
 dbcsr_finalize                   22517 11.1    0.086    0.506    0.557    1.799
 hfx_load_balance_range               1 12.0    0.000    0.001    1.114    1.785
 rs_grid_zero                      1333 11.9    1.549    1.721    1.549    1.721
 pw_integral_ab_c1d_c1d_gs          266 10.4    1.408    1.425    1.644    1.674
 transfer_pw2rs_10                  266 12.0    0.518    0.569    1.440    1.617
 transfer_rs2pw_10                  268 11.7    0.499    0.524    1.473    1.588
 create_qs_kind_set                   1  2.0    0.000    0.000    1.470    1.471
 read_qs_kind                         4  3.0    0.851    0.872    1.470    1.471
 tddfpt_apply_energy_diff             9  8.0    0.001    0.002    1.426    1.426
 xc_functional_eval                1683 10.8    0.001    0.007    0.921    1.412
 pbe_lda_eval                      1683 11.8    0.920    1.409    0.920    1.409
 pw_derive                         2397 11.8    1.262    1.376    1.262    1.376
 tddfpt_compute_residual_vects        8  7.0    0.001    0.001    1.322    1.323
 make_m2s                          3144 11.3    0.048    0.059    1.254    1.323
 mp_irecv_dm3                     10686 12.7    0.535    1.320    0.535    1.320
 multiply_cannon_multrec          25152 13.3    0.307    1.270    0.315    1.280
 mp_isend_dv                     102726 13.5    0.863    1.260    0.863    1.260
 mp_bcast_dm                      10108  9.7    1.192    1.238    1.192    1.238
 dbcsr_col_vec_to_rep_row         10015  8.0    0.078    0.088    1.102    1.227
 pw_copy_to_array                  2670 13.3    0.766    1.213    0.766    1.213
 make_images                       3144 12.3    0.266    0.316    1.085    1.153
 rs_scatter_matrices                268  9.7    0.008    0.012    1.040    1.102
 pw_copy                           3635 11.0    1.004    1.078    1.004    1.078
 hybrid_alltoall_any               4381 13.4    0.043    0.069    0.949    1.042
 multiply_cannon_metrocomm4       23580 13.3    0.072    0.077    0.360    0.960
 mp_bcast_dv                      10153  9.0    0.781    0.955    0.781    0.955
 mp_irecv_dv                     101648 13.5    0.309    0.942    0.309    0.942
 dbcsr_merge_all                  20719 12.1    0.249    0.694    0.342    0.940
 calculate_dm_sparse                 86  6.0    0.001    0.001    0.750    0.804
 cp_fm_symm                          86  7.0    0.766    0.790    0.766    0.790
 dbcsr_iterator_start            142659  9.4    0.373    0.627    0.417    0.780
 pw_poisson_set                     267 10.3    0.005    0.005    0.746    0.771
 fft_wrap_pw1pw2_30                 534 11.8    0.021    0.023    0.642    0.756
 cp_fm_triangular_multiply           60  8.0    0.690    0.693    0.690    0.693
 pw_poisson_rebuild                 266 10.4    0.000    0.000    0.653    0.673
 ps_wavelet_create                    1 10.0    0.000    0.000    0.653    0.673
 RS_z_slice_distribution              1 11.0    0.583    0.641    0.653    0.673
 pw_copy_from_array                2750 12.8    0.527    0.634    0.527    0.634
 init_scf_run                         1  3.0    0.000    0.000    0.630    0.630
 parser_read_line                181630  4.0    0.061    0.073    0.619    0.625
 parser_read_line_low               200  5.0    0.060    0.258    0.558    0.566
 scale_and_distribute               532 11.4    0.484    0.552    0.484    0.552
 pw_axpy                           2848 10.7    0.494    0.549    0.494    0.549
 dbcsr_rep_row_to_rep_col_vec     10015  8.0    0.066    0.076    0.463    0.545
 mp_max_i                           745  5.2    0.427    0.525    0.427    0.525
 dbcsr_sym_matrix_vector_mult_l   10015  8.0    0.222    0.412    0.334    0.524
 broadcast_input_information        200  6.0    0.138    0.151    0.499    0.512
 pw_zero                           2862 10.6    0.447    0.502    0.447    0.502
 tddfpt_construct_ground_state_       1  6.0    0.000    0.000    0.485    0.485
 cp_fm_trace_a1b1t1_aa            16500  8.0    0.114    0.124    0.456    0.468
 dbcsr_copy                       43936  7.8    0.259    0.295    0.377    0.421
 fft_wrap_pw1pw2_10                 534 11.8    0.007    0.007    0.406    0.412
 scf_env_initial_rho_setup            1  4.0    0.000    0.000    0.405    0.406
 make_images_data                  3144 13.3    0.040    0.050    0.298    0.394
 dbcsr_iterator_stop             142659  9.4    0.220    0.353    0.248    0.388
 make_images_sizes                 3144 13.3    0.004    0.004    0.341    0.383
 dbcsr_work_create                26672 12.0    0.089    0.228    0.148    0.381
 mp_alltoall_i44                   3144 14.3    0.337    0.379    0.337    0.379
 xc_2nd_deriv_of_r                 1080 10.0    0.005    0.100    0.017    0.365
 cp_fm_redistribute_start           138  8.2    0.170    0.303    0.218    0.362
 qs_init_subsys                       1  2.0    0.007    0.007    0.354    0.355
 offload_free_buffer                274 10.1    0.191    0.349    0.191    0.349
 dbcsr_work_destroy_all           26672 12.9    0.081    0.223    0.122    0.318
 cp_fm_triangular_invert             20  8.0    0.314    0.315    0.314    0.315
 qs_env_setup                         1  3.0    0.000    0.000    0.295    0.302
 qs_env_rebuild_pw_env                2  3.5    0.000    0.000    0.294    0.300
 cp_fm_cholesky_decompose            21  8.0    0.299    0.300    0.299    0.300
 pw_env_rebuild                       1  5.0    0.001    0.001    0.293    0.300
 dbcsr_create_new                 65392  9.8    0.215    0.231    0.274    0.290
 multiply_cannon_metrocomm1       25152 13.3    0.040    0.042    0.084    0.289
 mp_cart_sub                       2475 11.3    0.277    0.278    0.277    0.278
 mp_allgather_i34                  1572 12.3    0.184    0.273    0.184    0.273
 mp_alltoall_z11v                   534 14.8    0.260    0.266    0.260    0.266
 dbcsr_data_new                  346358 12.0    0.143    0.245    0.143    0.245
 multiply_cannon_metrocomm2       22008 13.3    0.068    0.077    0.147    0.245
 cp_fm_power                          1  6.0    0.003    0.004    0.236    0.237
 mp_bcast_am_src                    200  7.0    0.162    0.197    0.187    0.235
 tddfpt_init_mos                      1  5.0    0.000    0.000    0.233    0.233
 tddfpt_init_ground_state_mos         1  6.0    0.000    0.000    0.233    0.233
 mp_cart_create                    2305 10.5    0.199    0.227    0.202    0.230
 dbcsr_scale_anytype              15093  9.0    0.038    0.045    0.187    0.220
 eigensolver                          1  7.0    0.000    0.000    0.217    0.217
 mp_bcast_i_src                     800  7.0    0.166    0.205    0.166    0.205
 mp_rank_compare                   5420 14.0    0.183    0.189    0.183    0.189
 pw_grid_setup                        4  6.0    0.000    0.000    0.181    0.187
 pw_grid_setup_internal               4  7.0    0.004    0.005    0.181    0.187
 dbcsr_data_release              507447 11.6    0.113    0.183    0.113    0.183
 create_fast_row_vec_access       20030  8.0    0.122    0.135    0.168    0.182
 create_fast_col_vec_access       20030  8.0    0.125    0.137    0.169    0.182
 prepare_dr1dr                     1260 11.2    0.143    0.178    0.143    0.178
 tree_to_linear_d                  3797 13.4    0.056    0.174    0.056    0.174
 copy_fm_to_dbcsr_bc               2559 10.5    0.049    0.062    0.151    0.173
 dbcsr_iterator_seek             142659 10.4    0.044    0.160    0.044    0.160
 dbcsr_destroy                    45280  9.7    0.058    0.123    0.088    0.157
 yz_to_xz                           266 14.0    0.008    0.009    0.147    0.150
 tddfpt_orthogonalize_psi1_psi0      10  6.9    0.000    0.000    0.139    0.146
 tddfpt_compute_ritz_vects            9  7.0    0.004    0.005    0.139    0.140
 -------------------------------------------------------------------------------

 The number of warnings for this run is : 2
 
 -------------------------------------------------------------------------------
  **** **** ******  **  PROGRAM ENDED AT                 2025-04-14 03:40:29.264
 ***** ** ***  *** **   PROGRAM RAN ON                              i08r02c01s10
 **    ****   ******    PROGRAM RAN BY                                   di38fab
 ***** **    ** ** **   PROGRAM PROCESS ID                               1477316
  **** **  *******  **  PROGRAM STOPPED IN /hppfs/scratch/04/di38fab/05_MOL/aUKB
                                           qsEOTmq69kFe5R_nOg/5k_set_final_qzvp/
                                           PUVSOO/aug-cc-pVQZ/TDDFT
