 DBCSR| CPU Multiplication driver                                           BLAS (U)
 DBCSR| Multrec recursion limit                                              512 (U)
 DBCSR| Multiplication stack size                                           1000 (D)
 DBCSR| Maximum elements for images                                    UNLIMITED (U)
 DBCSR| Multiplicative factor virtual images                                   1 (U)
 DBCSR| Use multiplication densification                                       T (D)
 DBCSR| Multiplication size stacks                                             3 (U)
 DBCSR| Use memory pool for CPU allocation                                     F (U)
 DBCSR| Number of 3D layers                                               SINGLE (U)
 DBCSR| Use MPI memory allocation                                              F (U)
 DBCSR| Use RMA algorithm                                                      F (U)
 DBCSR| Use Communication thread                                               T (U)
 DBCSR| Communication thread load                                             75 (D)
 DBCSR| MPI: My process id                                                     0
 DBCSR| MPI: Number of processes                                              96
 DBCSR| OMP: Current number of threads                                         4
 DBCSR| OMP: Max number of threads                                             4
 DBCSR| Split modifier for TAS multiplication algorithm                  1.0E+00 (U)


  **** **** ******  **  PROGRAM STARTED AT               2025-04-28 04:37:40.287
 ***** ** ***  *** **   PROGRAM STARTED ON                          i03r03c03s04
 **    ****   ******    PROGRAM STARTED BY                               di38fab
 ***** **    ** ** **   PROGRAM PROCESS ID                               2122464
  **** **  *******  **  PROGRAM STARTED IN /hppfs/scratch/04/di38fab/07_MOL_non_
                                           aug/05_MOL_non_aug/05_MOL/W4-11+ALK/l
                                           i2_ch4/cc-pVQZ/TDDFT

 CP2K| version string:                 CP2K version 2025.1 (Development Version)
 CP2K| source code revision number:                             unknown revision
 CP2K| cp2kflags: omp libint fftw3 libxc parallel scalapack max_contr=4         
 CP2K| is freely available from                            https://www.cp2k.org/
 CP2K| Program compiled at                         Thu Apr 10 16:20:23 CEST 2025
 CP2K| Program compiled on                                               login01
 CP2K| Program compiled for                                        Supermuc-foss
 CP2K| Data directory path                  /hppfs/work/pn36zo/di38fab/cp2k/data
 CP2K| Input file name                                                    GW.inp

 GLOBAL| Force Environment number                                              1
 GLOBAL| Basis set file name            /hppfs/scratch/04/di38fab/04_TMD/BASIS_A
 GLOBAL| Potential file name            /hppfs/work/pn36zo/di38fab/cp2k/data/ALL
 GLOBAL| MM Potential file name                                     MM_POTENTIAL
 GLOBAL| Coordinate file name                                      __STD_INPUT__
 GLOBAL| Method name                                                        CP2K
 GLOBAL| Project name                                                       MoS2
 GLOBAL| Run type                                                         ENERGY
 GLOBAL| FFT library                                                       FFTW3
 GLOBAL| Diagonalization library                                       ScaLAPACK
 GLOBAL| DGEMM library                                                      BLAS
 GLOBAL| Orthonormality check for eigenvectors                          DISABLED
 GLOBAL| Matrix multiplication library                                 ScaLAPACK
 GLOBAL| All-to-all communication in single precision                          F
 GLOBAL| FFTs using library dependent lengths                                  F
 GLOBAL| Grid backend                                                       AUTO
 GLOBAL| Global print level                                               MEDIUM
 GLOBAL| MPI I/O enabled                                                       T
 GLOBAL| Total number of message passing processes                            96
 GLOBAL| Number of threads for this process                                    4
 GLOBAL| This output is from process                                           0
 GLOBAL| OpenMP stack size per thread (OMP_STACKSIZE)                    default
 GLOBAL| CPU model name             Intel(R) Xeon(R) Platinum 8174 CPU @ 3.10GHz

 MEMORY| system memory details [Kb]
 MEMORY|                        rank 0           min           max       average
 MEMORY| MemTotal             98436660      98436656      98436708      98436665
 MEMORY| MemFree              84966484      84848488      85038912      84961815
 MEMORY| Buffers                     0             0             0             0
 MEMORY| Cached                2384712       2376592       2393788       2385422
 MEMORY| Slab                  1073284       1066268       1086144       1073041
 MEMORY| SReclaimable           244400        239396        250080        244079
 MEMORY| MemLikelyFree        87595596      87465828      87676348      87591317


 *** Fundamental physical constants (SI units) ***

 *** Literature: B. J. Mohr and B. N. Taylor,
 ***             CODATA recommended values of the fundamental physical
 ***             constants: 2006, Web Version 5.1
 ***             http://physics.nist.gov/constants

 Speed of light in vacuum [m/s]                             2.99792458000000E+08
 Magnetic constant or permeability of vacuum [N/A**2]       1.25663706143592E-06
 Electric constant or permittivity of vacuum [F/m]          8.85418781762039E-12
 Planck constant (h) [J*s]                                  6.62606896000000E-34
 Planck constant (h-bar) [J*s]                              1.05457162825177E-34
 Elementary charge [C]                                      1.60217648700000E-19
 Electron mass [kg]                                         9.10938215000000E-31
 Electron g factor [ ]                                     -2.00231930436220E+00
 Proton mass [kg]                                           1.67262163700000E-27
 Fine-structure constant                                    7.29735253760000E-03
 Rydberg constant [1/m]                                     1.09737315685270E+07
 Avogadro constant [1/mol]                                  6.02214179000000E+23
 Boltzmann constant [J/K]                                   1.38065040000000E-23
 Atomic mass unit [kg]                                      1.66053878200000E-27
 Bohr radius [m]                                            5.29177208590000E-11

 *** Conversion factors ***

 [u] -> [a.u.]                                              1.82288848426455E+03
 [Angstrom] -> [Bohr] = [a.u.]                              1.88972613288564E+00
 [a.u.] = [Bohr] -> [Angstrom]                              5.29177208590000E-01
 [a.u.] -> [s]                                              2.41888432650478E-17
 [a.u.] -> [fs]                                             2.41888432650478E-02
 [a.u.] -> [J]                                              4.35974393937059E-18
 [a.u.] -> [N]                                              8.23872205491840E-08
 [a.u.] -> [K]                                              3.15774647902944E+05
 [a.u.] -> [kJ/mol]                                         2.62549961709828E+03
 [a.u.] -> [kcal/mol]                                       6.27509468713739E+02
 [a.u.] -> [Pa]                                             2.94210107994716E+13
 [a.u.] -> [bar]                                            2.94210107994716E+08
 [a.u.] -> [atm]                                            2.90362800883016E+08
 [a.u.] -> [eV]                                             2.72113838565563E+01
 [a.u.] -> [Hz]                                             6.57968392072181E+15
 [a.u.] -> [1/cm] (wave numbers)                            2.19474631370540E+05
 [a.u./Bohr**2] -> [1/cm]                                   5.14048714338585E+03
 

 CELL_TOP| Volume [angstrom^3]:                                     27000.000000
 CELL_TOP| Vector a [angstrom    30.000     0.000     0.000   |a| =    30.000000
 CELL_TOP| Vector b [angstrom     0.000    30.000     0.000   |b| =    30.000000
 CELL_TOP| Vector c [angstrom     0.000     0.000    30.000   |c| =    30.000000
 CELL_TOP| Angle (b,c), alpha [degree]:                                90.000000
 CELL_TOP| Angle (a,c), beta  [degree]:                                90.000000
 CELL_TOP| Angle (a,b), gamma [degree]:                                90.000000
 CELL_TOP| Numerically orthorhombic:                                         YES
 CELL_TOP| Periodicity                                                      NONE

 GENERATE|  Preliminary Number of Bonds generated:                             0
 GENERATE|  Achieved consistency in connectivity generation.

 CELL| Volume [angstrom^3]:                                         27000.000000
 CELL| Vector a [angstrom]:      30.000     0.000     0.000   |a| =    30.000000
 CELL| Vector b [angstrom]:       0.000    30.000     0.000   |b| =    30.000000
 CELL| Vector c [angstrom]:       0.000     0.000    30.000   |c| =    30.000000
 CELL| Angle (b,c), alpha [degree]:                                    90.000000
 CELL| Angle (a,c), beta  [degree]:                                    90.000000
 CELL| Angle (a,b), gamma [degree]:                                    90.000000
 CELL| Numerically orthorhombic:                                             YES
 CELL| Periodicity                                                          NONE

 CELL_REF| Volume [angstrom^3]:                                     27000.000000
 CELL_REF| Vector a [angstrom    30.000     0.000     0.000   |a| =    30.000000
 CELL_REF| Vector b [angstrom     0.000    30.000     0.000   |b| =    30.000000
 CELL_REF| Vector c [angstrom     0.000     0.000    30.000   |c| =    30.000000
 CELL_REF| Angle (b,c), alpha [degree]:                                90.000000
 CELL_REF| Angle (a,c), beta  [degree]:                                90.000000
 CELL_REF| Angle (a,b), gamma [degree]:                                90.000000
 CELL_REF| Numerically orthorhombic:                                         YES
 CELL_REF| Periodicity                                                      NONE

 *******************************************************************************
 *******************************************************************************
 **                                                                           **
 **     #####                         ##              ##                      **
 **    ##   ##            ##          ##              ##                      **
 **   ##     ##                       ##            ######                    **
 **   ##     ##  ##   ##  ##   #####  ##  ##   ####   ##    #####    #####    **
 **   ##     ##  ##   ##  ##  ##      ## ##   ##      ##   ##   ##  ##   ##   **
 **   ##  ## ##  ##   ##  ##  ##      ####     ###    ##   ######   ######    **
 **    ##  ###   ##   ##  ##  ##      ## ##      ##   ##   ##       ##        **
 **     #######   #####   ##   #####  ##  ##  ####    ##    #####   ##        **
 **           ##                                                    ##        **
 **                                                                           **
 **                                                ... make the atoms dance   **
 **                                                                           **
 **            Copyright (C) by CP2K developers group (2000-2025)             **
 **                      J. Chem. Phys. 152, 194103 (2020)                    **
 **                                                                           **
 *******************************************************************************

 DFT| Spin restricted Kohn-Sham (RKS) calculation                            RKS
 DFT| Multiplicity                                                             1
 DFT| Number of spin states                                                    1
 DFT| Charge                                                                   0
 DFT| Self-interaction correction (SIC)                                       NO
 DFT| Cutoffs: density                                              1.000000E-10
 DFT|          gradient                                             1.000000E-10
 DFT|          tau                                                  1.000000E-10
 DFT|          cutoff_smoothing_range                               0.000000E+00
 DFT| XC density smoothing                                                  NONE
 DFT| XC derivatives                                                          PW

 FUNCTIONAL| PBE:
 FUNCTIONAL| J.P.Perdew, K.Burke, M.Ernzerhof, Phys. Rev. Letter, vol. 77, n 18,
 FUNCTIONAL|  pp. 3865-3868, (1996)sx=0.750sc=1.000{spin unpolarized}           


 QS| Method:                                                                GAPW
 QS| Density plane wave grid type                        NON-SPHERICAL FULLSPACE
 QS| Number of grid levels:                                                    4
 QS| Density cutoff [a.u.]:                                                250.0
 QS| Multi grid cutoff [a.u.]: 1) grid level                               250.0
 QS|                           2) grid level                                83.3
 QS|                           3) grid level                                27.8
 QS|                           4) grid level                                 9.3
 QS| Grid level progression factor:                                          3.0
 QS| Relative density cutoff [a.u.]:                                        50.0
 QS| Interaction thresholds: eps_pgf_orb:                                1.0E-12
 QS|                         eps_filter_matrix:                          0.0E+00
 QS|                         eps_core_charge:                            1.0E-14
 QS|                         eps_rho_gspace:                             1.0E-12
 QS|                         eps_rho_rspace:                             1.0E-12
 QS|                         eps_gvg_rspace:                             1.0E-06
 QS|                         eps_ppl:                                    1.0E-02
 QS|                         eps_ppnl:                                   1.0E-08
 QS| GAPW|      One center basis from orbital basis primitives
 QS| GAPW|                   eps_fit:                                    1.0E-04
 QS| GAPW|                   eps_iso:                                    1.0E-12
 QS| GAPW|                   eps_svd:                                    1.0E-08
 QS| GAPW|                   eps_cpc:                                    1.0E-12
 QS| GAPW|   atom-r-grid: quadrature:                                     GC_LOG
 QS| GAPW|      atom-s-grid:  max l :                                          8
 QS| GAPW|      max_l_rho0 :                                                   2


 ATOMIC KIND INFORMATION

  1. Atomic kind: c                                     Number of atoms:       1

     Orbital Basis Set                                                   cc-pVQZ

       Number of orbital shell sets:                                           5
       Number of orbital shells:                                              15
       Number of primitive Cartesian functions:                               24
       Number of Cartesian basis functions:                                   70
       Number of spherical basis functions:                                   55
       Norm type:                                                              2

       Normalised Cartesian orbitals:

                        Set   Shell   Orbital            Exponent    Coefficient

                          1       1    1px              34.510000       0.000000
                                                         7.915000       0.000000
                                                         2.368000       0.000000
                                                         0.813200       1.100745
                                                         0.289000       0.000000
                                                         0.100700       0.000000
                          1       1    1py              34.510000       0.000000
                                                         7.915000       0.000000
                                                         2.368000       0.000000
                                                         0.813200       1.100745
                                                         0.289000       0.000000
                                                         0.100700       0.000000
                          1       1    1pz              34.510000       0.000000
                                                         7.915000       0.000000
                                                         2.368000       0.000000
                                                         0.813200       1.100745
                                                         0.289000       0.000000
                                                         0.100700       0.000000

                          1       2    2px              34.510000       0.641198
                                                         7.915000       0.683747
                                                         2.368000       0.596637
                                                         0.813200       0.376620
                                                         0.289000       0.140105
                                                         0.100700       0.020217
                          1       2    2py              34.510000       0.641198
                                                         7.915000       0.683747
                                                         2.368000       0.596637
                                                         0.813200       0.376620
                                                         0.289000       0.140105
                                                         0.100700       0.020217
                          1       2    2pz              34.510000       0.641198
                                                         7.915000       0.683747
                                                         2.368000       0.596637
                                                         0.813200       0.376620
                                                         0.289000       0.140105
                                                         0.100700       0.020217

                          1       3    3px              34.510000       0.000000
                                                         7.915000       0.000000
                                                         2.368000       0.000000
                                                         0.813200       0.000000
                                                         0.289000       0.302039
                                                         0.100700       0.000000
                          1       3    3py              34.510000       0.000000
                                                         7.915000       0.000000
                                                         2.368000       0.000000
                                                         0.813200       0.000000
                                                         0.289000       0.302039
                                                         0.100700       0.000000
                          1       3    3pz              34.510000       0.000000
                                                         7.915000       0.000000
                                                         2.368000       0.000000
                                                         0.813200       0.000000
                                                         0.289000       0.302039
                                                         0.100700       0.000000

                          1       4    4px              34.510000       0.000000
                                                         7.915000       0.000000
                                                         2.368000       0.000000
                                                         0.813200       0.000000
                                                         0.289000       0.000000
                                                         0.100700       0.080859
                          1       4    4py              34.510000       0.000000
                                                         7.915000       0.000000
                                                         2.368000       0.000000
                                                         0.813200       0.000000
                                                         0.289000       0.000000
                                                         0.100700       0.080859
                          1       4    4pz              34.510000       0.000000
                                                         7.915000       0.000000
                                                         2.368000       0.000000
                                                         0.813200       0.000000
                                                         0.289000       0.000000
                                                         0.100700       0.080859

                          2       1    1s            33980.000000       0.162319
                                                      5089.000000       0.302313
                                                      1157.000000       0.522143
                                                       326.600000       0.841034
                                                       106.100000       1.247069
                                                        38.110000       1.607436
                                                        14.750000       1.639463
                                                         6.035000       1.095889
                                                         2.530000       0.310322
                                                         0.735500       0.008997
                                                         0.290500      -0.000870
                                                         0.111100       0.000134

                          2       2    2s            33980.000000       0.000000
                                                      5089.000000       0.000000
                                                      1157.000000       0.000000
                                                       326.600000       0.000000
                                                       106.100000       0.000000
                                                        38.110000       0.000000
                                                        14.750000       0.000000
                                                         6.035000       0.000000
                                                         2.530000       0.000000
                                                         0.735500       0.566040
                                                         0.290500       0.000000
                                                         0.111100       0.000000

                          2       3    3s            33980.000000       0.000000
                                                      5089.000000       0.000000
                                                      1157.000000       0.000000
                                                       326.600000       0.000000
                                                       106.100000       0.000000
                                                        38.110000       0.000000
                                                        14.750000       0.000000
                                                         6.035000       0.000000
                                                         2.530000       0.000000
                                                         0.735500       0.000000
                                                         0.290500       0.282013
                                                         0.111100       0.000000

                          2       4    4s            33980.000000      -0.033891
                                                      5089.000000      -0.064843
                                                      1157.000000      -0.110989
                                                       326.600000      -0.182005
                                                       106.100000      -0.271236
                                                        38.110000      -0.373428
                                                        14.750000      -0.413970
                                                         6.035000      -0.388287
                                                         2.530000      -0.168734
                                                         0.735500       0.154985
                                                         0.290500       0.165404
                                                         0.111100       0.039147

                          2       5    5s            33980.000000       0.000000
                                                      5089.000000       0.000000
                                                      1157.000000       0.000000
                                                       326.600000       0.000000
                                                       106.100000       0.000000
                                                        38.110000       0.000000
                                                        14.750000       0.000000
                                                         6.035000       0.000000
                                                         2.530000       0.000000
                                                         0.735500       0.000000
                                                         0.290500       0.000000
                                                         0.111100       0.137150

                          3       1    1dx2              1.848000       4.821009
                                                         0.649000       0.000000
                                                         0.228000       0.000000
                          3       1    1dxy              1.848000       8.350232
                                                         0.649000       0.000000
                                                         0.228000       0.000000
                          3       1    1dxz              1.848000       8.350232
                                                         0.649000       0.000000
                                                         0.228000       0.000000
                          3       1    1dy2              1.848000       4.821009
                                                         0.649000       0.000000
                                                         0.228000       0.000000
                          3       1    1dyz              1.848000       8.350232
                                                         0.649000       0.000000
                                                         0.228000       0.000000
                          3       1    1dz2              1.848000       4.821009
                                                         0.649000       0.000000
                                                         0.228000       0.000000

                          3       2    2dx2              1.848000       0.000000
                                                         0.649000       0.772392
                                                         0.228000       0.000000
                          3       2    2dxy              1.848000       0.000000
                                                         0.649000       1.337822
                                                         0.228000       0.000000
                          3       2    2dxz              1.848000       0.000000
                                                         0.649000       1.337822
                                                         0.228000       0.000000
                          3       2    2dy2              1.848000       0.000000
                                                         0.649000       0.772392
                                                         0.228000       0.000000
                          3       2    2dyz              1.848000       0.000000
                                                         0.649000       1.337822
                                                         0.228000       0.000000
                          3       2    2dz2              1.848000       0.000000
                                                         0.649000       0.772392
                                                         0.228000       0.000000

                          3       3    3dx2              1.848000       0.000000
                                                         0.649000       0.000000
                                                         0.228000       0.123821
                          3       3    3dxy              1.848000       0.000000
                                                         0.649000       0.000000
                                                         0.228000       0.214465
                          3       3    3dxz              1.848000       0.000000
                                                         0.649000       0.000000
                                                         0.228000       0.214465
                          3       3    3dy2              1.848000       0.000000
                                                         0.649000       0.000000
                                                         0.228000       0.123821
                          3       3    3dyz              1.848000       0.000000
                                                         0.649000       0.000000
                                                         0.228000       0.214465
                          3       3    3dz2              1.848000       0.000000
                                                         0.649000       0.000000
                                                         0.228000       0.123821

                          4       1    1fx3              1.419000       3.235302
                                                         0.485000       0.000000
                          4       1    1fx2y             1.419000       7.234355
                                                         0.485000       0.000000
                          4       1    1fx2z             1.419000       7.234355
                                                         0.485000       0.000000
                          4       1    1fxy2             1.419000       7.234355
                                                         0.485000       0.000000
                          4       1    1fxyz             1.419000      12.530271
                                                         0.485000       0.000000
                          4       1    1fxz2             1.419000       7.234355
                                                         0.485000       0.000000
                          4       1    1fy3              1.419000       3.235302
                                                         0.485000       0.000000
                          4       1    1fy2z             1.419000       7.234355
                                                         0.485000       0.000000
                          4       1    1fyz2             1.419000       7.234355
                                                         0.485000       0.000000
                          4       1    1fz3              1.419000       3.235302
                                                         0.485000       0.000000

                          4       2    2fx3              1.419000       0.000000
                                                         0.485000       0.288984
                          4       2    2fx2y             1.419000       0.000000
                                                         0.485000       0.646187
                          4       2    2fx2z             1.419000       0.000000
                                                         0.485000       0.646187
                          4       2    2fxy2             1.419000       0.000000
                                                         0.485000       0.646187
                          4       2    2fxyz             1.419000       0.000000
                                                         0.485000       1.119229
                          4       2    2fxz2             1.419000       0.000000
                                                         0.485000       0.646187
                          4       2    2fy3              1.419000       0.000000
                                                         0.485000       0.288984
                          4       2    2fy2z             1.419000       0.000000
                                                         0.485000       0.646187
                          4       2    2fyz2             1.419000       0.000000
                                                         0.485000       0.646187
                          4       2    2fz3              1.419000       0.000000
                                                         0.485000       0.288984

                          5       1    1gx4              1.011000       1.146835
                          5       1    1gx3y             1.011000       3.034241
                          5       1    1gx3z             1.011000       3.034241
                          5       1    1gx2y2            1.011000       3.917189
                          5       1    1gx2yz            1.011000       6.784770
                          5       1    1gx2z2            1.011000       3.917189
                          5       1    1gxy3             1.011000       3.034241
                          5       1    1gxy2z            1.011000       6.784770
                          5       1    1gxyz2            1.011000       6.784770
                          5       1    1gxz3             1.011000       3.034241
                          5       1    1gy4              1.011000       1.146835
                          5       1    1gy3z             1.011000       3.034241
                          5       1    1gy2z2            1.011000       3.917189
                          5       1    1gyz3             1.011000       3.034241
                          5       1    1gz4              1.011000       1.146835

     RI Auxiliary Basis Set                                        cc-pVQZ-RIFIT

       Number of orbital shell sets:                                          30
       Number of orbital shells:                                              30
       Number of primitive Cartesian functions:                               30
       Number of Cartesian basis functions:                                  181
       Number of spherical basis functions:                                  132
       Norm type:                                                              2

       Normalised Cartesian orbitals:

                        Set   Shell   Orbital            Exponent    Coefficient

                          1       1    1px               0.245452       0.246262
                          1       1    1py               0.245452       0.246262
                          1       1    1pz               0.245452       0.246262

                          2       1    1s                0.249261       0.251421

                          3       1    1fx3              0.348633       0.137494
                          3       1    1fx2y             0.348633       0.307445
                          3       1    1fx2z             0.348633       0.307445
                          3       1    1fxy2             0.348633       0.307445
                          3       1    1fxyz             0.348633       0.532510
                          3       1    1fxz2             0.348633       0.307445
                          3       1    1fy3              0.348633       0.137494
                          3       1    1fy2z             0.348633       0.307445
                          3       1    1fyz2             0.348633       0.307445
                          3       1    1fz3              0.348633       0.137494

                          4       1    1dx2              0.352145       0.264955
                          4       1    1dxy              0.352145       0.458916
                          4       1    1dxz              0.352145       0.458916
                          4       1    1dy2              0.352145       0.264955
                          4       1    1dyz              0.352145       0.458916
                          4       1    1dz2              0.352145       0.264955

                          5       1    1s                0.489646       0.417178

                          6       1    1px               0.517168       0.625144
                          6       1    1py               0.517168       0.625144
                          6       1    1pz               0.517168       0.625144

                          7       1    1dx2              0.599456       0.672178
                          7       1    1dxy              0.599456       1.164246
                          7       1    1dxz              0.599456       1.164246
                          7       1    1dy2              0.599456       0.672178
                          7       1    1dyz              0.599456       1.164246
                          7       1    1dz2              0.599456       0.672178

                          8       1    1gx4              0.713257       0.439402
                          8       1    1gx3y             0.713257       1.162547
                          8       1    1gx3z             0.713257       1.162547
                          8       1    1gx2y2            0.713257       1.500842
                          8       1    1gx2yz            0.713257       2.599535
                          8       1    1gx2z2            0.713257       1.500842
                          8       1    1gxy3             0.713257       1.162547
                          8       1    1gxy2z            0.713257       2.599535
                          8       1    1gxyz2            0.713257       2.599535
                          8       1    1gxz3             0.713257       1.162547
                          8       1    1gy4              0.713257       0.439402
                          8       1    1gy3z             0.713257       1.162547
                          8       1    1gy2z2            0.713257       1.500842
                          8       1    1gyz3             0.713257       1.162547
                          8       1    1gz4              0.713257       0.439402

                          9       1    1fx3              0.729795       0.724697
                          9       1    1fx2y             0.729795       1.620471
                          9       1    1fx2z             0.729795       1.620471
                          9       1    1fxy2             0.729795       1.620471
                          9       1    1fxyz             0.729795       2.806738
                          9       1    1fxz2             0.729795       1.620471
                          9       1    1fy3              0.729795       0.724697
                          9       1    1fy2z             0.729795       1.620471
                          9       1    1fyz2             0.729795       1.620471
                          9       1    1fz3              0.729795       0.724697

                         10       1    1s                0.872371       0.643333

                         11       1    1dx2              1.031012       1.736286
                         11       1    1dxy              1.031012       3.007336
                         11       1    1dxz              1.031012       3.007336
                         11       1    1dy2              1.031012       1.736286
                         11       1    1dyz              1.031012       3.007336
                         11       1    1dz2              1.031012       1.736286

                         12       1    1px               1.053382       1.521151
                         12       1    1py               1.053382       1.521151
                         12       1    1pz               1.053382       1.521151

                         13       1    1gx4              1.349558       2.537826
                         13       1    1gx3y             1.349558       6.714456
                         13       1    1gx3z             1.349558       6.714456
                         13       1    1gx2y2            1.349558       8.668326
                         13       1    1gx2yz            1.349558      15.013981
                         13       1    1gx2z2            1.349558       8.668326
                         13       1    1gxy3             1.349558       6.714456
                         13       1    1gxy2z            1.349558      15.013981
                         13       1    1gxyz2            1.349558      15.013981
                         13       1    1gxz3             1.349558       6.714456
                         13       1    1gy4              1.349558       2.537826
                         13       1    1gy3z             1.349558       6.714456
                         13       1    1gy2z2            1.349558       8.668326
                         13       1    1gyz3             1.349558       6.714456
                         13       1    1gz4              1.349558       2.537826

                         14       1    1hx5              1.486936       2.693359
                         14       1    1hx4y             1.486936       8.080076
                         14       1    1hx4z             1.486936       8.080076
                         14       1    1hx3y2            1.486936      12.342519
                         14       1    1hx3yz            1.486936      21.377871
                         14       1    1hx3z2            1.486936      12.342519
                         14       1    1hx2y3            1.486936      12.342519
                         14       1    1hx2y2z           1.486936      27.598712
                         14       1    1hx2yz2           1.486936      27.598712
                         14       1    1hx2z3            1.486936      12.342519
                         14       1    1hxy4             1.486936       8.080076
                         14       1    1hxy3z            1.486936      21.377871
                         14       1    1hxy2z2           1.486936      27.598712
                         14       1    1hxyz3            1.486936      21.377871
                         14       1    1hxz4             1.486936       8.080076
                         14       1    1hy5              1.486936       2.693359
                         14       1    1hy4z             1.486936       8.080076
                         14       1    1hy3z2            1.486936      12.342519
                         14       1    1hy2z3            1.486936      12.342519
                         14       1    1hyz4             1.486936       8.080076
                         14       1    1hz5              1.486936       2.693359

                         15       1    1s                1.639209       1.032490

                         16       1    1px               1.688444       2.743459
                         16       1    1py               1.688444       2.743459
                         16       1    1pz               1.688444       2.743459

                         17       1    1fx3              1.738978       5.112301
                         17       1    1fx2y             1.738978      11.431452
                         17       1    1fx2z             1.738978      11.431452
                         17       1    1fxy2             1.738978      11.431452
                         17       1    1fxyz             1.738978      19.799856
                         17       1    1fxz2             1.738978      11.431452
                         17       1    1fy3              1.738978       5.112301
                         17       1    1fy2z             1.738978      11.431452
                         17       1    1fyz2             1.738978      11.431452
                         17       1    1fz3              1.738978       5.112301

                         18       1    1dx2              2.204215       6.563024
                         18       1    1dxy              2.204215      11.367491
                         18       1    1dxz              2.204215      11.367491
                         18       1    1dy2              2.204215       6.563024
                         18       1    1dyz              2.204215      11.367491
                         18       1    1dz2              2.204215       6.563024

                         19       1    1fx3              2.263014       9.246997
                         19       1    1fx2y             2.263014      20.676914
                         19       1    1fx2z             2.263014      20.676914
                         19       1    1fxy2             2.263014      20.676914
                         19       1    1fxyz             2.263014      35.813466
                         19       1    1fxz2             2.263014      20.676914
                         19       1    1fy3              2.263014       9.246997
                         19       1    1fy2z             2.263014      20.676914
                         19       1    1fyz2             2.263014      20.676914
                         19       1    1fz3              2.263014       9.246997

                         20       1    1gx4              2.812776      19.123049
                         20       1    1gx3y             2.812776      50.594833
                         20       1    1gx3z             2.812776      50.594833
                         20       1    1gx2y2            2.812776      65.317648
                         20       1    1gx2yz            2.812776     113.133486
                         20       1    1gx2z2            2.812776      65.317648
                         20       1    1gxy3             2.812776      50.594833
                         20       1    1gxy2z            2.812776     113.133486
                         20       1    1gxyz2            2.812776     113.133486
                         20       1    1gxz3             2.812776      50.594833
                         20       1    1gy4              2.812776      19.123049
                         20       1    1gy3z             2.812776      50.594833
                         20       1    1gy2z2            2.812776      65.317648
                         20       1    1gyz3             2.812776      50.594833
                         20       1    1gz4              2.812776      19.123049

                         21       1    1px               3.590642       7.045394
                         21       1    1py               3.590642       7.045394
                         21       1    1pz               3.590642       7.045394

                         22       1    1s                4.179168       2.083183

                         23       1    1fx3              5.448411      66.766969
                         23       1    1fx2y             5.448411     149.295482
                         23       1    1fx2z             5.448411     149.295482
                         23       1    1fxy2             5.448411     149.295482
                         23       1    1fxyz             5.448411     258.587361
                         23       1    1fxz2             5.448411     149.295482
                         23       1    1fy3              5.448411      66.766969
                         23       1    1fy2z             5.448411     149.295482
                         23       1    1fyz2             5.448411     149.295482
                         23       1    1fz3              5.448411      66.766969

                         24       1    1dx2              5.640287      33.977119
                         24       1    1dxy              5.640287      58.850096
                         24       1    1dxz              5.640287      58.850096
                         24       1    1dy2              5.640287      33.977119
                         24       1    1dyz              5.640287      58.850096
                         24       1    1dz2              5.640287      33.977119

                         25       1    1s                9.171527       3.756136

                         26       1    1px              12.325982      32.920544
                         26       1    1py              12.325982      32.920544
                         26       1    1pz              12.325982      32.920544

                         27       1    1dx2             16.935434     232.703555
                         27       1    1dxy             16.935434     403.054381
                         27       1    1dxz             16.935434     403.054381
                         27       1    1dy2             16.935434     232.703555
                         27       1    1dyz             16.935434     403.054381
                         27       1    1dz2             16.935434     232.703555

                         28       1    1s               47.118566      12.817524

                         29       1    1px              49.862265     188.866569
                         29       1    1py              49.862265     188.866569
                         29       1    1pz              49.862265     188.866569

                         30       1    1s              221.309708      40.894080

       Atomic covalent radius [Angstrom]:                                  0.770

       Atomic van der Waals radius [Angstrom]:                             1.700

     The atoms of this atomic kind are PAW atoms (GAPW):
       Hard Gaussian function radius:                                      1.512
       Rho0 radius:                                                        1.512
       Maximum GTO radius used for PAW projector construction:            24.566

     GAPW Soft Basis Set                                            cc-pVQZ_soft

       Number of orbital shell sets:                                           5
       Number of orbital shells:                                              15
       Number of primitive Cartesian functions:                               14
       Number of Cartesian basis functions:                                   70
       Number of spherical basis functions:                                   55
       Norm type:                                                              2

       Normalised Cartesian orbitals:

                        Set   Shell   Orbital            Exponent    Coefficient

                          1       1    1px               2.368000       0.000000
                                                         0.813200       1.100745
                                                         0.289000       0.000000
                                                         0.100700       0.000000
                          1       1    1py               2.368000       0.000000
                                                         0.813200       1.100745
                                                         0.289000       0.000000
                                                         0.100700       0.000000
                          1       1    1pz               2.368000       0.000000
                                                         0.813200       1.100745
                                                         0.289000       0.000000
                                                         0.100700       0.000000

                          1       2    2px               2.368000       0.596637
                                                         0.813200       0.376620
                                                         0.289000       0.140105
                                                         0.100700       0.020217
                          1       2    2py               2.368000       0.596637
                                                         0.813200       0.376620
                                                         0.289000       0.140105
                                                         0.100700       0.020217
                          1       2    2pz               2.368000       0.596637
                                                         0.813200       0.376620
                                                         0.289000       0.140105
                                                         0.100700       0.020217

                          1       3    3px               2.368000       0.000000
                                                         0.813200       0.000000
                                                         0.289000       0.302039
                                                         0.100700       0.000000
                          1       3    3py               2.368000       0.000000
                                                         0.813200       0.000000
                                                         0.289000       0.302039
                                                         0.100700       0.000000
                          1       3    3pz               2.368000       0.000000
                                                         0.813200       0.000000
                                                         0.289000       0.302039
                                                         0.100700       0.000000

                          1       4    4px               2.368000       0.000000
                                                         0.813200       0.000000
                                                         0.289000       0.000000
                                                         0.100700       0.080859
                          1       4    4py               2.368000       0.000000
                                                         0.813200       0.000000
                                                         0.289000       0.000000
                                                         0.100700       0.080859
                          1       4    4pz               2.368000       0.000000
                                                         0.813200       0.000000
                                                         0.289000       0.000000
                                                         0.100700       0.080859

                          2       1    1s                2.530000       0.310322
                                                         0.735500       0.008997
                                                         0.290500      -0.000870
                                                         0.111100       0.000134

                          2       2    2s                2.530000       0.000000
                                                         0.735500       0.566040
                                                         0.290500       0.000000
                                                         0.111100       0.000000

                          2       3    3s                2.530000       0.000000
                                                         0.735500       0.000000
                                                         0.290500       0.282013
                                                         0.111100       0.000000

                          2       4    4s                2.530000      -0.168734
                                                         0.735500       0.154985
                                                         0.290500       0.165404
                                                         0.111100       0.039147

                          2       5    5s                2.530000       0.000000
                                                         0.735500       0.000000
                                                         0.290500       0.000000
                                                         0.111100       0.137150

                          3       1    1dx2              1.848000       4.821009
                                                         0.649000       0.000000
                                                         0.228000       0.000000
                          3       1    1dxy              1.848000       8.350232
                                                         0.649000       0.000000
                                                         0.228000       0.000000
                          3       1    1dxz              1.848000       8.350232
                                                         0.649000       0.000000
                                                         0.228000       0.000000
                          3       1    1dy2              1.848000       4.821009
                                                         0.649000       0.000000
                                                         0.228000       0.000000
                          3       1    1dyz              1.848000       8.350232
                                                         0.649000       0.000000
                                                         0.228000       0.000000
                          3       1    1dz2              1.848000       4.821009
                                                         0.649000       0.000000
                                                         0.228000       0.000000

                          3       2    2dx2              1.848000       0.000000
                                                         0.649000       0.772392
                                                         0.228000       0.000000
                          3       2    2dxy              1.848000       0.000000
                                                         0.649000       1.337822
                                                         0.228000       0.000000
                          3       2    2dxz              1.848000       0.000000
                                                         0.649000       1.337822
                                                         0.228000       0.000000
                          3       2    2dy2              1.848000       0.000000
                                                         0.649000       0.772392
                                                         0.228000       0.000000
                          3       2    2dyz              1.848000       0.000000
                                                         0.649000       1.337822
                                                         0.228000       0.000000
                          3       2    2dz2              1.848000       0.000000
                                                         0.649000       0.772392
                                                         0.228000       0.000000

                          3       3    3dx2              1.848000       0.000000
                                                         0.649000       0.000000
                                                         0.228000       0.123821
                          3       3    3dxy              1.848000       0.000000
                                                         0.649000       0.000000
                                                         0.228000       0.214465
                          3       3    3dxz              1.848000       0.000000
                                                         0.649000       0.000000
                                                         0.228000       0.214465
                          3       3    3dy2              1.848000       0.000000
                                                         0.649000       0.000000
                                                         0.228000       0.123821
                          3       3    3dyz              1.848000       0.000000
                                                         0.649000       0.000000
                                                         0.228000       0.214465
                          3       3    3dz2              1.848000       0.000000
                                                         0.649000       0.000000
                                                         0.228000       0.123821

                          4       1    1fx3              1.419000       3.235302
                                                         0.485000       0.000000
                          4       1    1fx2y             1.419000       7.234355
                                                         0.485000       0.000000
                          4       1    1fx2z             1.419000       7.234355
                                                         0.485000       0.000000
                          4       1    1fxy2             1.419000       7.234355
                                                         0.485000       0.000000
                          4       1    1fxyz             1.419000      12.530271
                                                         0.485000       0.000000
                          4       1    1fxz2             1.419000       7.234355
                                                         0.485000       0.000000
                          4       1    1fy3              1.419000       3.235302
                                                         0.485000       0.000000
                          4       1    1fy2z             1.419000       7.234355
                                                         0.485000       0.000000
                          4       1    1fyz2             1.419000       7.234355
                                                         0.485000       0.000000
                          4       1    1fz3              1.419000       3.235302
                                                         0.485000       0.000000

                          4       2    2fx3              1.419000       0.000000
                                                         0.485000       0.288984
                          4       2    2fx2y             1.419000       0.000000
                                                         0.485000       0.646187
                          4       2    2fx2z             1.419000       0.000000
                                                         0.485000       0.646187
                          4       2    2fxy2             1.419000       0.000000
                                                         0.485000       0.646187
                          4       2    2fxyz             1.419000       0.000000
                                                         0.485000       1.119229
                          4       2    2fxz2             1.419000       0.000000
                                                         0.485000       0.646187
                          4       2    2fy3              1.419000       0.000000
                                                         0.485000       0.288984
                          4       2    2fy2z             1.419000       0.000000
                                                         0.485000       0.646187
                          4       2    2fyz2             1.419000       0.000000
                                                         0.485000       0.646187
                          4       2    2fz3              1.419000       0.000000
                                                         0.485000       0.288984

                          5       1    1gx4              1.011000       1.146835
                          5       1    1gx3y             1.011000       3.034241
                          5       1    1gx3z             1.011000       3.034241
                          5       1    1gx2y2            1.011000       3.917189
                          5       1    1gx2yz            1.011000       6.784770
                          5       1    1gx2z2            1.011000       3.917189
                          5       1    1gxy3             1.011000       3.034241
                          5       1    1gxy2z            1.011000       6.784770
                          5       1    1gxyz2            1.011000       6.784770
                          5       1    1gxz3             1.011000       3.034241
                          5       1    1gy4              1.011000       1.146835
                          5       1    1gy3z             1.011000       3.034241
                          5       1    1gy2z2            1.011000       3.917189
                          5       1    1gyz3             1.011000       3.034241
                          5       1    1gz4              1.011000       1.146835

     AE Potential information for                                            ALL

       Description:                                       All-electron potential
                                          Krack, Parrinello, PCCP 2, 2105 (2000)

       Gaussian exponent of the core charge distribution:               4.109048
       Electronic configuration (s p d ...):                           4   2   0

  2. Atomic kind: li                                    Number of atoms:       2

     Orbital Basis Set                                                   cc-pVQZ

       Number of orbital shell sets:                                           5
       Number of orbital shells:                                              15
       Number of primitive Cartesian functions:                               24
       Number of Cartesian basis functions:                                   70
       Number of spherical basis functions:                                   55
       Norm type:                                                              2

       Normalised Cartesian orbitals:

                        Set   Shell   Orbital            Exponent    Coefficient

                          1       1    1px               6.250000       0.000000
                                                         1.370000       0.000000
                                                         0.367200       0.000000
                                                         0.119200       0.099836
                                                         0.044740       0.000000
                                                         0.017950       0.000000
                          1       1    1py               6.250000       0.000000
                                                         1.370000       0.000000
                                                         0.367200       0.000000
                                                         0.119200       0.099836
                                                         0.044740       0.000000
                                                         0.017950       0.000000
                          1       1    1pz               6.250000       0.000000
                                                         1.370000       0.000000
                                                         0.367200       0.000000
                                                         0.119200       0.099836
                                                         0.044740       0.000000
                                                         0.017950       0.000000

                          1       2    2px               6.250000       0.047724
                                                         1.370000       0.040809
                                                         0.367200       0.032230
                                                         0.119200       0.027364
                                                         0.044740       0.015237
                                                         0.017950       0.002664
                          1       2    2py               6.250000       0.047724
                                                         1.370000       0.040809
                                                         0.367200       0.032230
                                                         0.119200       0.027364
                                                         0.044740       0.015237
                                                         0.017950       0.002664
                          1       2    2pz               6.250000       0.047724
                                                         1.370000       0.040809
                                                         0.367200       0.032230
                                                         0.119200       0.027364
                                                         0.044740       0.015237
                                                         0.017950       0.002664

                          1       3    3px               6.250000       0.000000
                                                         1.370000       0.000000
                                                         0.367200       0.000000
                                                         0.119200       0.000000
                                                         0.044740       0.029330
                                                         0.017950       0.000000
                          1       3    3py               6.250000       0.000000
                                                         1.370000       0.000000
                                                         0.367200       0.000000
                                                         0.119200       0.000000
                                                         0.044740       0.029330
                                                         0.017950       0.000000
                          1       3    3pz               6.250000       0.000000
                                                         1.370000       0.000000
                                                         0.367200       0.000000
                                                         0.119200       0.000000
                                                         0.044740       0.029330
                                                         0.017950       0.000000

                          1       4    4px               6.250000       0.000000
                                                         1.370000       0.000000
                                                         0.367200       0.000000
                                                         0.119200       0.000000
                                                         0.044740       0.000000
                                                         0.017950       0.009365
                          1       4    4py               6.250000       0.000000
                                                         1.370000       0.000000
                                                         0.367200       0.000000
                                                         0.119200       0.000000
                                                         0.044740       0.000000
                                                         0.017950       0.009365
                          1       4    4pz               6.250000       0.000000
                                                         1.370000       0.000000
                                                         0.367200       0.000000
                                                         0.119200       0.000000
                                                         0.044740       0.000000
                                                         0.017950       0.009365

                          2       1    1s             6601.000000       0.061066
                                                       989.700000       0.114566
                                                       225.700000       0.196217
                                                        64.290000       0.310635
                                                        21.180000       0.443628
                                                         7.724000       0.538931
                                                         3.003000       0.511857
                                                         1.212000       0.324312
                                                         0.493000       0.082572
                                                         0.095150       0.001221
                                                         0.047910      -0.000394
                                                         0.022200       0.000070

                          2       2    2s             6601.000000       0.000000
                                                       989.700000       0.000000
                                                       225.700000       0.000000
                                                        64.290000       0.000000
                                                        21.180000       0.000000
                                                         7.724000       0.000000
                                                         3.003000       0.000000
                                                         1.212000       0.000000
                                                         0.493000       0.000000
                                                         0.095150       0.122100
                                                         0.047910       0.000000
                                                         0.022200       0.000000

                          2       3    3s             6601.000000       0.000000
                                                       989.700000       0.000000
                                                       225.700000       0.000000
                                                        64.290000       0.000000
                                                        21.180000       0.000000
                                                         7.724000       0.000000
                                                         3.003000       0.000000
                                                         1.212000       0.000000
                                                         0.493000       0.000000
                                                         0.095150       0.000000
                                                         0.047910       0.072984
                                                         0.022200       0.000000

                          2       4    4s             6601.000000      -0.009395
                                                       989.700000      -0.017858
                                                       225.700000      -0.030752
                                                        64.290000      -0.048868
                                                        21.180000      -0.071230
                                                         7.724000      -0.089467
                                                         3.003000      -0.093256
                                                         1.212000      -0.077300
                                                         0.493000      -0.050776
                                                         0.095150       0.033774
                                                         0.047910       0.040108
                                                         0.022200       0.011370

                          2       5    5s             6601.000000       0.000000
                                                       989.700000       0.000000
                                                       225.700000       0.000000
                                                        64.290000       0.000000
                                                        21.180000       0.000000
                                                         7.724000       0.000000
                                                         3.003000       0.000000
                                                         1.212000       0.000000
                                                         0.493000       0.000000
                                                         0.095150       0.000000
                                                         0.047910       0.000000
                                                         0.022200       0.040990

                          3       1    1dx2              0.335200       0.243048
                                                         0.148200       0.000000
                                                         0.065600       0.000000
                          3       1    1dxy              0.335200       0.420971
                                                         0.148200       0.000000
                                                         0.065600       0.000000
                          3       1    1dxz              0.335200       0.420971
                                                         0.148200       0.000000
                                                         0.065600       0.000000
                          3       1    1dy2              0.335200       0.243048
                                                         0.148200       0.000000
                                                         0.065600       0.000000
                          3       1    1dyz              0.335200       0.420971
                                                         0.148200       0.000000
                                                         0.065600       0.000000
                          3       1    1dz2              0.335200       0.243048
                                                         0.148200       0.000000
                                                         0.065600       0.000000

                          3       2    2dx2              0.335200       0.000000
[...]
 pw_poisson_solve                   295  8.8    3.231    4.260  138.498  138.869
 fft3d_ps                          4871 12.7   53.137   66.702  123.357  128.782
 ps_wavelet_solve                   295  9.8   65.818   76.238   84.403   85.556
 qs_rho_update_rho_low              297  6.6    0.003    0.004   76.733   76.736
 calculate_rho_elec                 297  7.6    1.445    1.715   75.992   75.996
 tddfpt_apply_coulomb               120  9.0    0.003    0.003   70.149   70.516
 xc_pw_derive                      1425 11.0    0.017    0.021   64.535   65.624
 mp_alltoall_d54                    295 10.8   10.934   65.195   10.934   65.195
 mp_alltoall_z22v                  4871 14.7   59.640   65.025   59.640   65.025
 density_rs2pw                      297  8.6    0.019    0.023   50.593   55.334
 integrate_four_center              415  9.6    9.104   18.025   54.600   54.715
 qs_vxc_create                      175  8.0    0.002    0.002   43.896   43.896
 tddfpt_apply_xc_analytic           120  9.0    0.171    0.225   40.100   40.613
 hfx_ks_matrix                      175  8.0    0.006    0.007   38.628   38.692
 x_to_yz                           2196 13.8    6.386    7.491   36.046   37.502
 yz_to_x                           2199 13.6    3.658    4.356   33.601   37.261
 transfer_rs2pw                    1485  9.8    0.039    0.062   31.415   35.560
 xc_pw_divergence                   179 10.7    0.008    0.010   33.909   35.044
 prepare_gapw_den                   296  8.4    0.006    0.007   33.707   34.044
 xc_rho_set_and_dset_create         176 10.0    0.412    0.539   26.973   32.455
 integrate_v_rspace                 179  9.0    0.005    0.006   31.560   31.632
 integrate_four_center_main         415 10.6    0.378   13.691    8.212   29.690
 init_scf_loop                        1  4.0    0.000    0.000   29.121   29.121
 integrate_four_center_bin       105330 11.6    7.834   29.039    7.834   29.039
 mp_sync                           2305 11.5   18.874   28.987   18.874   28.987
 grid_collocate_task_list           297  8.6   22.712   27.486   22.712   27.486
 mp_alltoall_d11v                 12514 11.8   18.826   26.720   18.826   26.720
 put_rho0_on_grid                   296  9.4    1.470    1.815   24.923   25.260
 transfer_pw2rs                    1012 10.7    0.017    0.021   24.661   25.066
 potential_pw2rs                    179 10.0    0.062    0.069   24.580   24.666
 mp_waitany                       46350 12.1   21.130   24.163   21.130   24.163
 xc_calc_2nd_deriv_analytical       360 10.1    1.430    1.498   23.828   23.902
 transfer_rs2pw_250                 594 11.0    7.566    8.204   18.807   23.033
 xc_vxc_pw_create                    59  9.0    0.368    0.458   22.050   22.051
 xc_exc_calc                        116  9.0    0.563    0.669   21.844   21.844
 tddfpt_apply_hfx                     6  8.0    0.002    0.003   17.403   17.403
 tddft_hfx_matrix                   240  9.0    0.006    0.008   15.990   16.053
 transfer_pw2rs_250                 475 11.3    5.572    5.938   15.587   15.980
 integrate_vhg0_rspace              295  8.8    0.534    0.653   14.347   14.593
 mp_sum_d                         11203  8.3   10.136   13.509   10.136   13.509
 mp_alltoall_d45                    296 10.8    7.014   12.442    7.014   12.442
 calc_screening_functions             1 10.0    9.699   10.361   11.458   12.119
 sum_up_and_integrate                59  8.0    0.001    0.001   10.435   10.462
 mp_waitall_1                    418750 13.5    6.870    9.204    6.870    9.204
 pw_scatter_p                      2375 12.8    8.383    8.625    8.383    8.625
 calculate_rho_atom                 888  9.4    3.383    8.351    3.383    8.351
 xc_functional_eval                 766 10.9    0.002    0.005    3.169    8.275
 pbe_lda_eval                       766 11.9    3.168    8.271    3.168    8.271
 pw_gather_p                       2496 12.5    6.896    7.596    6.896    7.596
 pw_derive                         2310 11.5    6.803    7.305    6.803    7.305
 rs_gather_matrices                 179 10.0    0.017    0.024    6.089    6.996
 grid_integrate_task_list           179 10.0    0.884    6.893    0.884    6.893
 cp2k_distribution_to_z_slices      295  9.8    2.836    3.069    6.258    6.648
 transfer_rs2pw_30                  297 10.6    2.797    2.932    6.515    6.636
 transfer_rs2pw_90                  297 10.6    1.134    1.282    4.719    5.740
 mp_sum_dv                        26187  9.8    5.301    5.603    5.301    5.603
 transfer_pw2rs_30                  179 12.0    3.049    3.533    5.090    5.462
 fft_wrap_pw1pw2_90                 476 11.1    0.162    0.259    4.143    5.230
 rs_grid_zero                      1246 11.3    4.982    5.225    4.982    5.225
 dbcsr_multiply_generic            3120  9.9    0.129    0.139    4.912    4.978
 gaVxcgb_GC                         179  9.7    0.197    4.897    0.197    4.897
 pw_copy                           3610 10.8    4.546    4.866    4.546    4.866
 mp_sendrecv_dv                   56430 11.6    4.536    4.764    4.536    4.764
 pw_poisson_set                     296  9.8    0.010    0.012    4.554    4.599
 calculate_xc_2nd_deriv_atom        120  9.0    0.078    1.093    0.233    4.517
 qs_scf_new_mos                     175  5.0    0.001    0.001    4.329    4.340
 qs_scf_loop_do_ot                  175  6.0    0.001    0.001    4.328    4.339
 ot_scf_mini                        175  7.0    0.002    0.002    4.048    4.060
 transfer_pw2rs_90                  179 12.0    0.739    0.838    3.060    3.406
 cp_dbcsr_sm_fm_multiply            769  8.5    0.015    0.015    3.219    3.288
 mp_sum_dm                         6252  9.0    2.804    3.201    2.804    3.201
 powell_optimize                1224046 11.0    3.023    3.111    3.023    3.111
 mp_isendrecv_dv                 112860 12.0    1.365    2.917    1.365    2.917
 pw_integral_ab_c1d_c1d_gs          295  9.8    2.158    2.182    2.546    2.881
 pw_copy_to_array                  2496 12.5    2.403    2.768    2.403    2.768
 multiply_cannon                   3120 10.9    0.283    0.293    2.591    2.720
 calculate_vxc_atom                 175  8.0    0.119    0.838    2.589    2.589
 pw_axpy                           2498 10.1    2.322    2.571    2.322    2.571
 integrate_four_center_getP         415 10.6    0.098    0.110    2.363    2.386
 integrate_four_center_dist_KS      415 10.6    0.092    0.105    2.285    2.296
 dbcsr_complete_redistribute       2776 10.7    0.116    0.184    2.075    2.143
 pw_copy_from_array                2375 12.8    1.661    2.112    1.661    2.112
 multiply_cannon_loop              3120 11.9    0.471    0.492    1.898    2.041
 calc_pair_dist_radii                 1 10.0    0.648    0.659    1.912    1.958
 pw_zero                           2500 10.5    1.742    1.897    1.742    1.897
 qs_ot_get_p                        176  8.0    0.001    0.001    1.863    1.874
 create_qs_kind_set                   1  2.0    0.000    0.000    1.865    1.865
 read_qs_kind                         3  3.0    1.041    1.061    1.865    1.865
 mp_irecv_dm3                      9270 12.1    0.847    1.648    0.847    1.648
 mp_isend_dm3                      9270 12.1    0.919    1.632    0.919    1.632
 copy_dbcsr_to_fm                   981  9.7    0.013    0.014    1.515    1.567
 mp_isend_dv                     177095 13.5    1.055    1.551    1.055    1.551
 make_m2s                          6240 10.9    0.103    0.110    1.394    1.494
 qs_ot_p2m_diag                     175  9.0    0.004    0.005    1.389    1.397
 Vh_1c_gg_integrals                 295  8.8    0.058    0.768    1.210    1.376
 transfer_rs2pw_10                  297 10.6    0.517    0.569    1.336    1.375
 ot_mini                            175  8.0    0.001    0.001    1.332    1.340
 mp_sum_l                         14017 10.6    1.093    1.338    1.093    1.338
 copy_fm_to_dbcsr                  1793  9.7    0.008    0.009    1.251    1.324
 tddfpt_print_nto_analysis            1  6.0    0.002    0.003    1.313    1.313
 cp_dbcsr_sm_fm_multiply_core       769  9.5    0.002    0.002    1.178    1.230
 qs_ot_get_derivative                59  9.0    0.000    0.001    1.214    1.218
 cp_fm_syevd                        223 10.3    0.001    0.002    1.182    1.185
 qs_energies_init_hamiltonians        1  3.0    0.000    0.000    1.177    1.177
 build_core_hamiltonian_matrix        1  4.0    0.000    0.000    1.170    1.170
 overlap_condnum                      1  5.0    0.000    0.000    1.165    1.168
 mp_max_i                           763  5.2    0.883    1.152    0.883    1.152
 arnoldi_conjugate_gradient           7  6.0    0.027    0.032    1.111    1.112
 make_images                       6240 11.9    0.247    0.260    1.025    1.100
 transfer_pw2rs_10                  179 12.0    0.330    0.365    0.907    1.086
 cp_fm_redistribute_end             223 11.3    0.548    0.988    0.555    0.995
 cp_fm_geeig                         20  7.0    0.001    0.001    0.989    0.990
 fft_wrap_pw1pw2_30                 476 11.1    0.030    0.034    0.862    0.968
 qs_ot_get_derivative_diag           58 10.0    0.001    0.001    0.931    0.935
 integrate_four_center_load         415 10.6    0.001    0.002    0.679    0.910
 hfx_load_balance                     1 11.0    0.000    0.000    0.678    0.909
 hfx_load_balance_range               1 12.0    0.000    0.000    0.670    0.901
 cp_fm_syevd_base                   223 11.3    0.435    0.874    0.435    0.874
 cp_dbcsr_syevd                     175 10.0    0.009    0.010    0.839    0.841
 scale_and_distribute               590 10.8    0.742    0.839    0.742    0.839
 parser_read_line                220631  4.0    0.077    0.089    0.824    0.835
 mp_alltoall_i11v                  9484 11.7    0.804    0.805    0.804    0.805
 pw_poisson_rebuild                 295  9.8    0.000    0.000    0.786    0.799
 ps_wavelet_create                    1 10.0    0.000    0.000    0.786    0.799
 RS_z_slice_distribution              1 11.0    0.681    0.741    0.786    0.799
 parser_read_line_low               237  5.0    0.074    0.347    0.747    0.760
 calculate_rho_atom_coeff           297  7.6    0.070    0.177    0.737    0.739
 dbcsr_sym_matrix_vector_mult      4261  7.2    0.067    0.073    0.600    0.721
 broadcast_input_information        237  6.0    0.176    0.189    0.673    0.691
 tddfpt_orthonormalize_psi1_psi       7  6.9    0.011    0.012    0.685    0.686
 dbcsr_desymmetrize_deep            982 10.7    0.018    0.021    0.574    0.624
 cp_dbcsr_plus_fm_fm_t              121  9.0    0.002    0.002    0.543    0.550
 qs_ot_get_orbitals                 175  8.0    0.001    0.001    0.542    0.548
 prepare_dr1dr                      360 11.1    0.429    0.516    0.429    0.516
 tddfpt_apply_energy_diff             6  8.0    0.001    0.001    0.513    0.513
 update_ks_atom                     295  8.4    0.045    0.143    0.418    0.507
 mp_alltoall_i22                   3816 11.7    0.387    0.498    0.387    0.498
 multiply_cannon_metrocomm4       68640 12.9    0.204    0.217    0.403    0.484
 multiply_cannon_metrocomm3       74880 12.9    0.119    0.124    0.335    0.461
 tddfpt_construct_ground_state_       1  6.0    0.000    0.000    0.433    0.437
 calculate_rho0_atom                888  9.4    0.420    0.434    0.420    0.434
 dbcsr_finalize                   13619 11.3    0.042    0.116    0.197    0.420
 multiply_cannon_metrocomm2       65520 12.9    0.196    0.210    0.360    0.403
 tddfpt_compute_residual_vects        5  7.0    0.001    0.001    0.398    0.398
 mp_bcast_dm                       4308  9.5    0.378    0.398    0.378    0.398
 dbcsr_add_d                       6525  7.3    0.006    0.007    0.060    0.392
 make_images_sizes                 6240 12.9    0.007    0.007    0.373    0.390
 dbcsr_add_anytype                 6525  8.3    0.008    0.049    0.053    0.385
 mp_alltoall_i44                   6240 13.9    0.367    0.383    0.367    0.383
 hybrid_alltoall_any               7222 13.6    0.057    0.079    0.311    0.368
 fft_wrap_pw1pw2_10                 476 11.1    0.008    0.008    0.336    0.356
 init_scf_run                         1  3.0    0.000    0.000    0.333    0.333
 scf_env_initial_rho_setup            1  4.0    0.000    0.000    0.333    0.333
 qs_init_subsys                       1  2.0    0.005    0.006    0.330    0.330
 multiply_cannon_metrocomm1       74880 12.9    0.083    0.085    0.216    0.329
 parallel_gemm_fm                  1019  8.3    0.001    0.001    0.291    0.317
 parallel_gemm_fm_gemm             1019  9.3    0.001    0.001    0.290    0.316
 mp_rank_compare                   4871 13.7    0.292    0.316    0.292    0.316
 cp_fm_gemm                        1019 10.3    0.289    0.314    0.289    0.314
 mp_irecv_dv                     176033 13.5    0.166    0.310    0.166    0.310
 mp_bcast_i_src                     948  7.0    0.265    0.309    0.265    0.309
 dbcsr_create_new                 79343 11.6    0.211    0.219    0.282    0.295
 qs_env_setup                         1  3.0    0.000    0.000    0.285    0.293
 qs_env_rebuild_pw_env                2  3.5    0.000    0.000    0.284    0.292
 pw_env_rebuild                       1  5.0    0.001    0.001    0.284    0.291
 calculate_dm_sparse                176  7.0    0.001    0.001    0.283    0.288
 dbcsr_col_vec_to_rep_row          5621  9.3    0.039    0.047    0.196    0.285
 create_kernel_env                    1  6.0    0.000    0.000    0.237    0.276
 xc_prep_2nd_deriv                    1  7.0    0.000    0.000    0.237    0.276
 dbcsr_make_images_dense           4224 11.9    0.063    0.066    0.191    0.266
 offload_free_buffer                303  9.6    0.038    0.259    0.038    0.259
 mp_bcast_am_src                    237  7.0    0.212    0.235    0.227    0.253
 mp_allgather_i34                  3120 11.9    0.222    0.252    0.222    0.252
 dbcsr_rep_row_to_rep_col_vec      4261  8.2    0.021    0.028    0.105    0.244
 pw_grid_setup                        4  6.0    0.000    0.000    0.228    0.235
 pw_grid_setup_internal               4  7.0    0.006    0.008    0.228    0.235
 make_images_data                  6240 12.9    0.061    0.081    0.145    0.233
 pw_scale                           476  9.5    0.182    0.225    0.182    0.225
 dbcsr_merge_all                  12538 12.2    0.086    0.171    0.110    0.221
 multiply_cannon_multrec          74880 12.9    0.098    0.199    0.111    0.213
 mp_alltoall_z11v                   476 14.1    0.189    0.210    0.189    0.210
 dbcsr_iterator_start             95307 10.6    0.100    0.165    0.121    0.201
 cp_fm_redistribute_start           223 11.3    0.150    0.153    0.191    0.199
 rs_scatter_matrices                297  8.6    0.003    0.013    0.183    0.194
 dbcsr_make_dense_low             12254 12.8    0.061    0.063    0.094    0.192
 cp_fm_cholesky_decompose            23  7.9    0.189    0.190    0.189    0.190
 arnoldi_extremal                   176  9.0    0.003    0.003    0.183    0.187
 arnoldi_normal_ev                  177 10.0    0.003    0.003    0.181    0.185
 mp_cart_create                    1871 10.6    0.157    0.171    0.160    0.174
 mp_bcast_dv                       5844 10.4    0.074    0.170    0.074    0.170
 dbcsr_special_finalize           15600 12.9    0.041    0.043    0.131    0.168
 mp_cart_sub                       1965 11.7    0.166    0.167    0.166    0.167
 pw_grid_sort                         4  8.0    0.106    0.109    0.155    0.158
 cp_fm_triangular_invert             20  8.0    0.156    0.157    0.156    0.157
 cp_fm_trace_a1b1t1_aa             7470  8.0    0.035    0.037    0.150    0.152
 dbcsr_copy                       21148  8.2    0.074    0.081    0.131    0.143
 dbcsr_iterator_stop              95307 10.6    0.076    0.115    0.093    0.136
 mp_isend_iv                     147410 13.9    0.113    0.127    0.113    0.127
 build_subspace                     177 11.0    0.006    0.007    0.125    0.127
 dbcsr_destroy                    70151 11.1    0.084    0.089    0.115    0.123
 xz_to_yz                           297 12.6    0.011    0.012    0.116    0.123
 rs_grid_create                     301  9.7    0.002    0.002    0.010    0.117
 offload_create_buffer              303 10.7    0.008    0.115    0.008    0.115
 xc_2nd_deriv_of_r                  240 10.0    0.001    0.020    0.008    0.112
 ot_new_cg_direction                 59  9.0    0.001    0.001    0.111    0.111
 yz_to_xz                           179 14.0    0.010    0.011    0.094    0.111
 dbcsr_data_release              367956 12.6    0.087    0.110    0.087    0.110
 vxc_of_r_new                       350  9.0    0.001    0.009    0.007    0.106
 dbcsr_data_new                  208275 12.8    0.079    0.103    0.079    0.103
 dbcsr_matrix_vector_mult          1360 12.0    0.013    0.014    0.066    0.102
 apply_preconditioner_dbcsr          60 10.0    0.000    0.000    0.098    0.102
 apply_single                        60 11.0    0.000    0.000    0.098    0.102
 make_dense_data                  12254 13.8    0.006    0.043    0.008    0.100
 dbcsr_work_create                29178 12.4    0.044    0.065    0.065    0.100
 cp_fm_triangular_multiply           61  8.0    0.096    0.098    0.096    0.098
 tddfpt_orthogonalize_psi1_psi0       7  6.9    0.000    0.000    0.068    0.089
 dbcsr_work_destroy_all           29178 13.4    0.041    0.064    0.055    0.088
 scf_post_calculation_gpw             1  3.0    0.000    0.000    0.084    0.084
 write_available_results              1  4.0    0.000    0.000    0.084    0.084
 write_mo_free_results                1  5.0    0.007    0.011    0.084    0.084
 dbcsr_sym_matrix_vector_mult_l    4261  8.2    0.019    0.072    0.032    0.083
 setup_buffer_matrices             6240 11.9    0.023    0.024    0.071    0.075
 mp_irecv_iv                     148180 13.9    0.065    0.074    0.065    0.074
 dbcsr_merge_single_wm             7130 13.7    0.035    0.043    0.041    0.070
 create_fast_row_vec_access        9882  8.8    0.040    0.045    0.062    0.067
 create_fast_col_vec_access        9882  8.8    0.039    0.043    0.061    0.065
 copy_fm_to_dbcsr_bc               1793 10.7    0.020    0.022    0.057    0.062
 dbcsr_make_dense                  1694 11.1    0.007    0.007    0.036    0.061
 dbcsr_new_transposed              1352 10.8    0.008    0.008    0.057    0.060
 tddfpt_compute_ritz_vects            6  7.0    0.003    0.004    0.057    0.057
 mp_sum_b                          4225 10.9    0.056    0.057    0.056    0.057
 prepare_preconditioner               1  5.0    0.000    0.000    0.056    0.056
 make_preconditioner                  1  6.0    0.000    0.000    0.056    0.056
 make_full_single_inverse             1  7.0    0.000    0.000    0.051    0.051
 sort_shells                          4  9.0    0.049    0.050    0.049    0.050
 dbcsr_mm_multrec_init             3120 11.9    0.006    0.007    0.043    0.048
 compute_max_radius                   1  6.0    0.046    0.047    0.046    0.047
 -------------------------------------------------------------------------------

 The number of warnings for this run is : 2
 
 -------------------------------------------------------------------------------
  **** **** ******  **  PROGRAM ENDED AT                 2025-04-28 04:45:21.093
 ***** ** ***  *** **   PROGRAM RAN ON                              i03r03c03s04
 **    ****   ******    PROGRAM RAN BY                                   di38fab
 ***** **    ** ** **   PROGRAM PROCESS ID                               2122464
  **** **  *******  **  PROGRAM STOPPED IN /hppfs/scratch/04/di38fab/07_MOL_non_
                                           aug/05_MOL_non_aug/05_MOL/W4-11+ALK/l
                                           i2_ch4/cc-pVQZ/TDDFT
