 DBCSR| CPU Multiplication driver                                           BLAS (U)
 DBCSR| Multrec recursion limit                                              512 (U)
 DBCSR| Multiplication stack size                                           1000 (D)
 DBCSR| Maximum elements for images                                    UNLIMITED (U)
 DBCSR| Multiplicative factor virtual images                                   1 (U)
 DBCSR| Use multiplication densification                                       T (D)
 DBCSR| Multiplication size stacks                                             3 (U)
 DBCSR| Use memory pool for CPU allocation                                     F (U)
 DBCSR| Number of 3D layers                                               SINGLE (U)
 DBCSR| Use MPI memory allocation                                              F (U)
 DBCSR| Use RMA algorithm                                                      F (U)
 DBCSR| Use Communication thread                                               T (U)
 DBCSR| Communication thread load                                             75 (D)
 DBCSR| MPI: My process id                                                     0
 DBCSR| MPI: Number of processes                                             216
 DBCSR| OMP: Current number of threads                                         4
 DBCSR| OMP: Max number of threads                                             4
 DBCSR| Split modifier for TAS multiplication algorithm                  1.0E+00 (U)


  **** **** ******  **  PROGRAM STARTED AT               2025-03-11 06:28:30.098
 ***** ** ***  *** **   PROGRAM STARTED ON                          i02r04c02s06
 **    ****   ******    PROGRAM STARTED BY                               di38fab
 ***** **    ** ** **   PROGRAM PROCESS ID                               3224266
  **** **  *******  **  PROGRAM STARTED IN /hppfs/scratch/04/di38fab/05_MOL/aUKB
                                           qsEOTmq69kFe5R_nOg/5k_set_final_qzvp/
                                           VABHUB/aug-cc-pVDZ

 CP2K| version string:                 CP2K version 2025.1 (Development Version)
 CP2K| source code revision number:                                  git:d2e611a
 CP2K| cp2kflags: omp libint fftw3 libxc parallel scalapack max_contr=4         
 CP2K| is freely available from                            https://www.cp2k.org/
 CP2K| Program compiled at                       Thu 06 Mar 2025 05:09:20 PM CET
 CP2K| Program compiled on                                               login02
 CP2K| Program compiled for                                        Supermuc-foss
 CP2K| Data directory path                  /hppfs/work/pn36zo/di38fab/cp2k/data
 CP2K| Input file name                                                    GW.inp

 GLOBAL| Force Environment number                                              1
 GLOBAL| Basis set file name            /hppfs/scratch/04/di38fab/04_TMD/BASIS_A
 GLOBAL| Potential file name            /hppfs/work/pn36zo/di38fab/cp2k/data/ALL
 GLOBAL| MM Potential file name                                     MM_POTENTIAL
 GLOBAL| Coordinate file name                                      __STD_INPUT__
 GLOBAL| Method name                                                        CP2K
 GLOBAL| Project name                                                       MoS2
 GLOBAL| Run type                                                         ENERGY
 GLOBAL| FFT library                                                       FFTW3
 GLOBAL| Diagonalization library                                       ScaLAPACK
 GLOBAL| DGEMM library                                                      BLAS
 GLOBAL| Orthonormality check for eigenvectors                          DISABLED
 GLOBAL| Matrix multiplication library                                 ScaLAPACK
 GLOBAL| All-to-all communication in single precision                          F
 GLOBAL| FFTs using library dependent lengths                                  F
 GLOBAL| Grid backend                                                       AUTO
 GLOBAL| Global print level                                               MEDIUM
 GLOBAL| MPI I/O enabled                                                       T
 GLOBAL| Total number of message passing processes                           216
 GLOBAL| Number of threads for this process                                    4
 GLOBAL| This output is from process                                           0
 GLOBAL| OpenMP stack size per thread (OMP_STACKSIZE)                    default
 GLOBAL| CPU model name             Intel(R) Xeon(R) Platinum 8174 CPU @ 3.10GHz

 MEMORY| system memory details [Kb]
 MEMORY|                        rank 0           min           max       average
 MEMORY| MemTotal             98436664      98436660      98436708      98436673
 MEMORY| MemFree              83880576      83711592      84326112      83950325
 MEMORY| Buffers                     0             0             0             0
 MEMORY| Cached                2476988       2409932       2606408       2447431
 MEMORY| Slab                  1240372       1164460       1257572       1234704
 MEMORY| SReclaimable           273384        262840        275316        270643
 MEMORY| MemLikelyFree        86630948      86428412      86998912      86668400


 *** Fundamental physical constants (SI units) ***

 *** Literature: B. J. Mohr and B. N. Taylor,
 ***             CODATA recommended values of the fundamental physical
 ***             constants: 2006, Web Version 5.1
 ***             http://physics.nist.gov/constants

 Speed of light in vacuum [m/s]                             2.99792458000000E+08
 Magnetic constant or permeability of vacuum [N/A**2]       1.25663706143592E-06
 Electric constant or permittivity of vacuum [F/m]          8.85418781762039E-12
 Planck constant (h) [J*s]                                  6.62606896000000E-34
 Planck constant (h-bar) [J*s]                              1.05457162825177E-34
 Elementary charge [C]                                      1.60217648700000E-19
 Electron mass [kg]                                         9.10938215000000E-31
 Electron g factor [ ]                                     -2.00231930436220E+00
 Proton mass [kg]                                           1.67262163700000E-27
 Fine-structure constant                                    7.29735253760000E-03
 Rydberg constant [1/m]                                     1.09737315685270E+07
 Avogadro constant [1/mol]                                  6.02214179000000E+23
 Boltzmann constant [J/K]                                   1.38065040000000E-23
 Atomic mass unit [kg]                                      1.66053878200000E-27
 Bohr radius [m]                                            5.29177208590000E-11

 *** Conversion factors ***

 [u] -> [a.u.]                                              1.82288848426455E+03
 [Angstrom] -> [Bohr] = [a.u.]                              1.88972613288564E+00
 [a.u.] = [Bohr] -> [Angstrom]                              5.29177208590000E-01
 [a.u.] -> [s]                                              2.41888432650478E-17
 [a.u.] -> [fs]                                             2.41888432650478E-02
 [a.u.] -> [J]                                              4.35974393937059E-18
 [a.u.] -> [N]                                              8.23872205491840E-08
 [a.u.] -> [K]                                              3.15774647902944E+05
 [a.u.] -> [kJ/mol]                                         2.62549961709828E+03
 [a.u.] -> [kcal/mol]                                       6.27509468713739E+02
 [a.u.] -> [Pa]                                             2.94210107994716E+13
 [a.u.] -> [bar]                                            2.94210107994716E+08
 [a.u.] -> [atm]                                            2.90362800883016E+08
 [a.u.] -> [eV]                                             2.72113838565563E+01
 [a.u.] -> [Hz]                                             6.57968392072181E+15
 [a.u.] -> [1/cm] (wave numbers)                            2.19474631370540E+05
 [a.u./Bohr**2] -> [1/cm]                                   5.14048714338585E+03
 

 CELL_TOP| Volume [angstrom^3]:                                     27000.000000
 CELL_TOP| Vector a [angstrom    30.000     0.000     0.000   |a| =    30.000000
 CELL_TOP| Vector b [angstrom     0.000    30.000     0.000   |b| =    30.000000
 CELL_TOP| Vector c [angstrom     0.000     0.000    30.000   |c| =    30.000000
 CELL_TOP| Angle (b,c), alpha [degree]:                                90.000000
 CELL_TOP| Angle (a,c), beta  [degree]:                                90.000000
 CELL_TOP| Angle (a,b), gamma [degree]:                                90.000000
 CELL_TOP| Numerically orthorhombic:                                         YES
 CELL_TOP| Periodicity                                                      NONE

 GENERATE|  Preliminary Number of Bonds generated:                             0
 GENERATE|  Achieved consistency in connectivity generation.

 CELL| Volume [angstrom^3]:                                         27000.000000
 CELL| Vector a [angstrom]:      30.000     0.000     0.000   |a| =    30.000000
 CELL| Vector b [angstrom]:       0.000    30.000     0.000   |b| =    30.000000
 CELL| Vector c [angstrom]:       0.000     0.000    30.000   |c| =    30.000000
 CELL| Angle (b,c), alpha [degree]:                                    90.000000
 CELL| Angle (a,c), beta  [degree]:                                    90.000000
 CELL| Angle (a,b), gamma [degree]:                                    90.000000
 CELL| Numerically orthorhombic:                                             YES
 CELL| Periodicity                                                          NONE

 CELL_REF| Volume [angstrom^3]:                                     27000.000000
 CELL_REF| Vector a [angstrom    30.000     0.000     0.000   |a| =    30.000000
 CELL_REF| Vector b [angstrom     0.000    30.000     0.000   |b| =    30.000000
 CELL_REF| Vector c [angstrom     0.000     0.000    30.000   |c| =    30.000000
 CELL_REF| Angle (b,c), alpha [degree]:                                90.000000
 CELL_REF| Angle (a,c), beta  [degree]:                                90.000000
 CELL_REF| Angle (a,b), gamma [degree]:                                90.000000
 CELL_REF| Numerically orthorhombic:                                         YES
 CELL_REF| Periodicity                                                      NONE

 *******************************************************************************
 *******************************************************************************
 **                                                                           **
 **     #####                         ##              ##                      **
 **    ##   ##            ##          ##              ##                      **
 **   ##     ##                       ##            ######                    **
 **   ##     ##  ##   ##  ##   #####  ##  ##   ####   ##    #####    #####    **
 **   ##     ##  ##   ##  ##  ##      ## ##   ##      ##   ##   ##  ##   ##   **
 **   ##  ## ##  ##   ##  ##  ##      ####     ###    ##   ######   ######    **
 **    ##  ###   ##   ##  ##  ##      ## ##      ##   ##   ##       ##        **
 **     #######   #####   ##   #####  ##  ##  ####    ##    #####   ##        **
 **           ##                                                    ##        **
 **                                                                           **
 **                                                ... make the atoms dance   **
 **                                                                           **
 **            Copyright (C) by CP2K developers group (2000-2025)             **
 **                      J. Chem. Phys. 152, 194103 (2020)                    **
 **                                                                           **
 *******************************************************************************

 DFT| Spin restricted Kohn-Sham (RKS) calculation                            RKS
 DFT| Multiplicity                                                             1
 DFT| Number of spin states                                                    1
 DFT| Charge                                                                   0
 DFT| Self-interaction correction (SIC)                                       NO
 DFT| Cutoffs: density                                              1.000000E-10
 DFT|          gradient                                             1.000000E-10
 DFT|          tau                                                  1.000000E-10
 DFT|          cutoff_smoothing_range                               0.000000E+00
 DFT| XC density smoothing                                                  NONE
 DFT| XC derivatives                                                          PW

 FUNCTIONAL| PBE:
 FUNCTIONAL| J.P.Perdew, K.Burke, M.Ernzerhof, Phys. Rev. Letter, vol. 77, n 18,
 FUNCTIONAL|  pp. 3865-3868, (1996)sx=0.750sc=1.000{spin unpolarized}           


 QS| Method:                                                                GAPW
 QS| Density plane wave grid type                        NON-SPHERICAL FULLSPACE
 QS| Number of grid levels:                                                    4
 QS| Density cutoff [a.u.]:                                                250.0
 QS| Multi grid cutoff [a.u.]: 1) grid level                               250.0
 QS|                           2) grid level                                83.3
 QS|                           3) grid level                                27.8
 QS|                           4) grid level                                 9.3
 QS| Grid level progression factor:                                          3.0
 QS| Relative density cutoff [a.u.]:                                        50.0
 QS| Interaction thresholds: eps_pgf_orb:                                1.0E-12
 QS|                         eps_filter_matrix:                          0.0E+00
 QS|                         eps_core_charge:                            1.0E-14
 QS|                         eps_rho_gspace:                             1.0E-12
 QS|                         eps_rho_rspace:                             1.0E-12
 QS|                         eps_gvg_rspace:                             1.0E-06
 QS|                         eps_ppl:                                    1.0E-02
 QS|                         eps_ppnl:                                   1.0E-08
 QS| GAPW|      One center basis from orbital basis primitives
 QS| GAPW|                   eps_fit:                                    1.0E-04
 QS| GAPW|                   eps_iso:                                    1.0E-12
 QS| GAPW|                   eps_svd:                                    1.0E-08
 QS| GAPW|                   eps_cpc:                                    1.0E-12
 QS| GAPW|   atom-r-grid: quadrature:                                     GC_LOG
 QS| GAPW|      atom-s-grid:  max l :                                          4
 QS| GAPW|      max_l_rho0 :                                                   2


 ATOMIC KIND INFORMATION

  1. Atomic kind: S                                     Number of atoms:       3

     Orbital Basis Set                                               aug-cc-pVDZ

       Number of orbital shell sets:                                           6
       Number of orbital shells:                                              11
       Number of primitive Cartesian functions:                               24
       Number of Cartesian basis functions:                                   29
       Number of spherical basis functions:                                   27
       Norm type:                                                              2

       Normalised Cartesian orbitals:

                        Set   Shell   Orbital            Exponent    Coefficient

                          1       1    1px               0.039900       0.025419
                          1       1    1py               0.039900       0.025419
                          1       1    1pz               0.039900       0.025419

                          2       1    1s                0.050700       0.076149

                          3       1    1px             399.700000      11.400936
                                                        94.190000      14.292268
                                                        29.750000      14.286128
                                                        10.770000       9.842934
                                                         4.119000       3.839926
                                                         1.625000       0.539735
                                                         0.472600       0.005705
                                                         0.140700      -0.000007
                          3       1    1py             399.700000      11.400936
                                                        94.190000      14.292268
                                                        29.750000      14.286128
                                                        10.770000       9.842934
                                                         4.119000       3.839926
                                                         1.625000       0.539735
                                                         0.472600       0.005705
                                                         0.140700      -0.000007
                          3       1    1pz             399.700000      11.400936
                                                        94.190000      14.292268
                                                        29.750000      14.286128
                                                        10.770000       9.842934
                                                         4.119000       3.839926
                                                         1.625000       0.539735
                                                         0.472600       0.005705
                                                         0.140700      -0.000007

                          3       2    2px             399.700000      -2.961452
                                                        94.190000      -3.620726
                                                        29.750000      -3.871231
                                                        10.770000      -2.599246
                                                         4.119000      -1.237867
                                                         1.625000       0.078954
                                                         0.472600       0.313663
                                                         0.140700       0.065687
                          3       2    2py             399.700000      -2.961452
                                                        94.190000      -3.620726
                                                        29.750000      -3.871231
                                                        10.770000      -2.599246
                                                         4.119000      -1.237867
                                                         1.625000       0.078954
                                                         0.472600       0.313663
                                                         0.140700       0.065687
                          3       2    2pz             399.700000      -2.961452
                                                        94.190000      -3.620726
                                                        29.750000      -3.871231
                                                        10.770000      -2.599246
                                                         4.119000      -1.237867
                                                         1.625000       0.078954
                                                         0.472600       0.313663
                                                         0.140700       0.065687

                          3       3    3px             399.700000       0.000000
                                                        94.190000       0.000000
                                                        29.750000       0.000000
                                                        10.770000       0.000000
                                                         4.119000       0.000000
                                                         1.625000       0.000000
                                                         0.472600       0.000000
                                                         0.140700       0.122831
                          3       3    3py             399.700000       0.000000
                                                        94.190000       0.000000
                                                        29.750000       0.000000
                                                        10.770000       0.000000
                                                         4.119000       0.000000
                                                         1.625000       0.000000
                                                         0.472600       0.000000
                                                         0.140700       0.122831
                          3       3    3pz             399.700000       0.000000
                                                        94.190000       0.000000
                                                        29.750000       0.000000
                                                        10.770000       0.000000
                                                         4.119000       0.000000
                                                         1.625000       0.000000
                                                         0.472600       0.000000
                                                         0.140700       0.122831

                          4       1    1dx2              0.152000       0.060903
                          4       1    1dxy              0.152000       0.105486
                          4       1    1dxz              0.152000       0.105486
                          4       1    1dy2              0.152000       0.060903
                          4       1    1dyz              0.152000       0.105486
                          4       1    1dz2              0.152000       0.060903

                          5       1    1s           110800.000000       1.071832
                                                     16610.000000       2.002384
                                                      3781.000000       3.423404
                                                      1071.000000       5.376879
                                                       349.800000       7.413604
                                                       126.300000       8.148781
                                                        49.260000       5.584810
                                                        20.160000       1.564869
                                                         5.720000       0.047178
                                                         2.182000      -0.003807
                                                         0.432700       0.000323
                                                         0.157000      -0.000065

                          5       2    2s           110800.000000      -0.297369
                                                     16610.000000      -0.550248
                                                      3781.000000      -0.961087
                                                      1071.000000      -1.503098
                                                       349.800000      -2.241502
                                                       126.300000      -2.671755
                                                        49.260000      -2.646951
                                                        20.160000      -0.836474
                                                         5.720000       1.352816
                                                         2.182000       0.776829
                                                         0.432700       0.015086
                                                         0.157000      -0.001683

                          5       3    3s           110800.000000       0.086166
                                                     16610.000000       0.160047
                                                      3781.000000       0.278185
                                                      1071.000000       0.438949
                                                       349.800000       0.651218
                                                       126.300000       0.795827
                                                        49.260000       0.794922
                                                        20.160000       0.280213
                                                         5.720000      -0.546916
                                                         2.182000      -0.502714
                                                         0.432700       0.240627
                                                         0.157000       0.098999

                          5       4    4s           110800.000000       0.000000
                                                     16610.000000       0.000000
                                                      3781.000000       0.000000
                                                      1071.000000       0.000000
                                                       349.800000       0.000000
                                                       126.300000       0.000000
                                                        49.260000       0.000000
                                                        20.160000       0.000000
                                                         5.720000       0.000000
                                                         2.182000       0.000000
                                                         0.432700       0.000000
                                                         0.157000       0.177760

                          6       1    1dx2              0.479000       0.453938
                          6       1    1dxy              0.479000       0.786244
                          6       1    1dxz              0.479000       0.786244
                          6       1    1dy2              0.479000       0.453938
                          6       1    1dyz              0.479000       0.786244
                          6       1    1dz2              0.479000       0.453938

     RI Auxiliary Basis Set                                    aug-cc-pVDZ-OPTRI

       Number of orbital shell sets:                                          18
       Number of orbital shells:                                              18
       Number of primitive Cartesian functions:                               18
       Number of Cartesian basis functions:                                   89
       Number of spherical basis functions:                                   70
       Norm type:                                                              2

       Normalised Cartesian orbitals:

                        Set   Shell   Orbital            Exponent    Coefficient

                          1       1    1px               0.073815       0.054843
                          1       1    1py               0.073815       0.054843
                          1       1    1pz               0.073815       0.054843

                          2       1    1s                0.087220       0.114386

                          3       1    1px               0.232976       0.230717
                          3       1    1py               0.232976       0.230717
                          3       1    1pz               0.232976       0.230717

                          4       1    1s                0.255123       0.255842

                          5       1    1dx2              0.300821       0.201117
                          5       1    1dxy              0.300821       0.348345
                          5       1    1dxz              0.300821       0.348345
                          5       1    1dy2              0.300821       0.201117
                          5       1    1dyz              0.300821       0.348345
                          5       1    1dz2              0.300821       0.201117

                          6       1    1fx3              0.318226       0.111972
                          6       1    1fx2y             0.318226       0.250377
                          6       1    1fx2z             0.318226       0.250377
                          6       1    1fxy2             0.318226       0.250377
                          6       1    1fxyz             0.318226       0.433666
                          6       1    1fxz2             0.318226       0.250377
                          6       1    1fy3              0.318226       0.111972
                          6       1    1fy2z             0.318226       0.250377
                          6       1    1fyz2             0.318226       0.250377
                          6       1    1fz3              0.318226       0.111972

                          7       1    1gx4              0.746960       0.498888
                          7       1    1gx3y             0.746960       1.319934
                          7       1    1gx3z             0.746960       1.319934
                          7       1    1gx2y2            0.746960       1.704027
                          7       1    1gx2yz            0.746960       2.951462
                          7       1    1gx2z2            0.746960       1.704027
                          7       1    1gxy3             0.746960       1.319934
                          7       1    1gxy2z            0.746960       2.951462
                          7       1    1gxyz2            0.746960       2.951462
                          7       1    1gxz3             0.746960       1.319934
                          7       1    1gy4              0.746960       0.498888
                          7       1    1gy3z             0.746960       1.319934
                          7       1    1gy2z2            0.746960       1.704027
                          7       1    1gyz3             0.746960       1.319934
                          7       1    1gz4              0.746960       0.498888

                          8       1    1px               0.790521       1.062507
                          8       1    1py               0.790521       1.062507
                          8       1    1pz               0.790521       1.062507

                          9       1    1s                0.820379       0.614357

                         10       1    1fx3              0.834298       0.979326
                         10       1    1fx2y             0.834298       2.189839
                         10       1    1fx2z             0.834298       2.189839
                         10       1    1fxy2             0.834298       2.189839
                         10       1    1fxyz             0.834298       3.792912
                         10       1    1fxz2             0.834298       2.189839
                         10       1    1fy3              0.834298       0.979326
                         10       1    1fy2z             0.834298       2.189839
                         10       1    1fyz2             0.834298       2.189839
                         10       1    1fz3              0.834298       0.979326

                         11       1    1dx2              0.928523       1.445595
                         11       1    1dxy              0.928523       2.503844
                         11       1    1dxz              0.928523       2.503844
                         11       1    1dy2              0.928523       1.445595
                         11       1    1dyz              0.928523       2.503844
                         11       1    1dz2              0.928523       1.445595

                         12       1    1s                2.638023       1.475262

                         13       1    1px               2.682351       4.893106
                         13       1    1py               2.682351       4.893106
                         13       1    1pz               2.682351       4.893106

                         14       1    1fx3              5.046678      56.197506
                         14       1    1fx2y             5.046678     125.661443
                         14       1    1fx2z             5.046678     125.661443
                         14       1    1fxy2             5.046678     125.661443
                         14       1    1fxyz             5.046678     217.652004
                         14       1    1fxz2             5.046678     125.661443
                         14       1    1fy3              5.046678      56.197506
                         14       1    1fy2z             5.046678     125.661443
                         14       1    1fyz2             5.046678     125.661443
                         14       1    1fz3              5.046678      56.197506

                         15       1    1dx2              7.174550      51.766657
                         15       1    1dxy              7.174550      89.662481
                         15       1    1dxz              7.174550      89.662481
                         15       1    1dy2              7.174550      51.766657
                         15       1    1dyz              7.174550      89.662481
                         15       1    1dz2              7.174550      51.766657

                         16       1    1s                8.482869       3.542560

                         17       1    1px               9.101604      22.533959
                         17       1    1py               9.101604      22.533959
                         17       1    1pz               9.101604      22.533959

                         18       1    1dx2             17.402982     244.062402
                         18       1    1dxy             17.402982     422.728480
                         18       1    1dxz             17.402982     422.728480
                         18       1    1dy2             17.402982     244.062402
                         18       1    1dyz             17.402982     422.728480
                         18       1    1dz2             17.402982     244.062402

       Atomic covalent radius [Angstrom]:                                  1.020

       Atomic van der Waals radius [Angstrom]:                             1.800

     The atoms of this atomic kind are PAW atoms (GAPW):
       Hard Gaussian function radius:                                      1.512
       Rho0 radius:                                                        1.512
       Maximum GTO radius used for PAW projector construction:            24.566

     GAPW Soft Basis Set                                        aug-cc-pVDZ_soft

       Number of orbital shell sets:                                           6
       Number of orbital shells:                                              11
       Number of primitive Cartesian functions:                               11
       Number of Cartesian basis functions:                                   29
       Number of spherical basis functions:                                   27
       Norm type:                                                              2

       Normalised Cartesian orbitals:

                        Set   Shell   Orbital            Exponent    Coefficient

                          1       1    1px               0.039900       0.025419
                          1       1    1py               0.039900       0.025419
                          1       1    1pz               0.039900       0.025419

                          2       1    1s                0.050700       0.076149

                          3       1    1px               4.119000       3.839926
                                                         1.625000       0.539735
                                                         0.472600       0.005705
                                                         0.140700      -0.000007
                          3       1    1py               4.119000       3.839926
                                                         1.625000       0.539735
                                                         0.472600       0.005705
                                                         0.140700      -0.000007
                          3       1    1pz               4.119000       3.839926
                                                         1.625000       0.539735
                                                         0.472600       0.005705
                                                         0.140700      -0.000007

                          3       2    2px               4.119000      -1.237867
                                                         1.625000       0.078954
                                                         0.472600       0.313663
                                                         0.140700       0.065687
                          3       2    2py               4.119000      -1.237867
                                                         1.625000       0.078954
                                                         0.472600       0.313663
                                                         0.140700       0.065687
                          3       2    2pz               4.119000      -1.237867
                                                         1.625000       0.078954
                                                         0.472600       0.313663
                                                         0.140700       0.065687

                          3       3    3px               4.119000       0.000000
                                                         1.625000       0.000000
                                                         0.472600       0.000000
                                                         0.140700       0.122831
                          3       3    3py               4.119000       0.000000
                                                         1.625000       0.000000
                                                         0.472600       0.000000
                                                         0.140700       0.122831
                          3       3    3pz               4.119000       0.000000
                                                         1.625000       0.000000
                                                         0.472600       0.000000
                                                         0.140700       0.122831

                          4       1    1dx2              0.152000       0.060903
                          4       1    1dxy              0.152000       0.105486
                          4       1    1dxz              0.152000       0.105486
                          4       1    1dy2              0.152000       0.060903
                          4       1    1dyz              0.152000       0.105486
                          4       1    1dz2              0.152000       0.060903

                          5       1    1s                2.182000      -0.003807
                                                         0.432700       0.000323
                                                         0.157000      -0.000065

                          5       2    2s                2.182000       0.776829
                                                         0.432700       0.015086
                                                         0.157000      -0.001683

                          5       3    3s                2.182000      -0.502714
                                                         0.432700       0.240627
                                                         0.157000       0.098999

                          5       4    4s                2.182000       0.000000
                                                         0.432700       0.000000
                                                         0.157000       0.177760

                          6       1    1dx2              0.479000       0.453938
                          6       1    1dxy              0.479000       0.786244
                          6       1    1dxz              0.479000       0.786244
                          6       1    1dy2              0.479000       0.453938
                          6       1    1dyz              0.479000       0.786244
                          6       1    1dz2              0.479000       0.453938

     AE Potential information for                                            ALL

       Description:                                       All-electron potential
                                          Krack, Parrinello, PCCP 2, 2105 (2000)

       Gaussian exponent of the core charge distribution:               2.834467
       Electronic configuration (s p d ...):                           6  10   0

  2. Atomic kind: F                                     Number of atoms:       3

     Orbital Basis Set                                               aug-cc-pVDZ

       Number of orbital shell sets:                                           6
       Number of orbital shells:                                               9
       Number of primitive Cartesian functions:                               17
       Number of Cartesian basis functions:                                   25
       Number of spherical basis functions:                                   23
       Norm type:                                                              2

       Normalised Cartesian orbitals:

                        Set   Shell   Orbital            Exponent    Coefficient

                          1       1    1px               0.085020       0.065440
                          1       1    1py               0.085020       0.065440
                          1       1    1pz               0.085020       0.065440

                          2       1    1s                0.098630       0.125434

                          3       1    1px              22.670000       3.164375
                                                         4.977000       2.497712
                                                         1.347000       1.051861
                                                         0.347100       0.173975
                          3       1    1py              22.670000       3.164375
                                                         4.977000       2.497712
                                                         1.347000       1.051861
                                                         0.347100       0.173975
                          3       1    1pz              22.670000       3.164375
                                                         4.977000       2.497712
                                                         1.347000       1.051861
                                                         0.347100       0.173975

                          3       2    2px              22.670000       0.000000
                                                         4.977000       0.000000
                                                         1.347000       0.000000
                                                         0.347100       0.379759
                          3       2    2py              22.670000       0.000000
                                                         4.977000       0.000000
                                                         1.347000       0.000000
                                                         0.347100       0.379759
                          3       2    2pz              22.670000       0.000000
                                                         4.977000       0.000000
                                                         1.347000       0.000000
                                                         0.347100       0.379759

                          4       1    1s            14710.000000       0.686365
                                                      2207.000000       1.274353
                                                       502.800000       2.139126
                                                       142.600000       3.130553
                                                        46.470000       3.638230
                                                        16.700000       2.641476
                                                         6.356000       0.755357
                                                         1.316000       0.013427
                                                         0.389700      -0.000820

                          4       2    2s            14710.000000      -0.157074
                                                      2207.000000      -0.300172
                                                       502.800000      -0.491514
                                                       142.600000      -0.784991
                                                        46.470000      -0.934756
                                                        16.700000      -1.005483
                                                         6.356000      -0.320466
                                                         1.316000       0.492853
                                                         0.389700       0.199941

                          4       3    3s            14710.000000       0.000000
                                                      2207.000000       0.000000
                                                       502.800000       0.000000
                                                       142.600000       0.000000
                                                        46.470000       0.000000
                                                        16.700000       0.000000
                                                         6.356000       0.000000
                                                         1.316000       0.000000
                                                         0.389700       0.351526

                          5       1    1dx2              0.464000       0.429354
                          5       1    1dxy              0.464000       0.743664
                          5       1    1dxz              0.464000       0.743664
                          5       1    1dy2              0.464000       0.429354
                          5       1    1dyz              0.464000       0.743664
                          5       1    1dz2              0.464000       0.429354

                          6       1    1dx2              1.640000       3.911886
                          6       1    1dxy              1.640000       6.775585
                          6       1    1dxz              1.640000       6.775585
                          6       1    1dy2              1.640000       3.911886
                          6       1    1dyz              1.640000       6.775585
                          6       1    1dz2              1.640000       3.911886

     RI Auxiliary Basis Set                                    aug-cc-pVDZ-OPTRI

       Number of orbital shell sets:                                          17
       Number of orbital shells:                                              17
       Number of primitive Cartesian functions:                               17
       Number of Cartesian basis functions:                                   88
       Number of spherical basis functions:                                   69
       Norm type:                                                              2

       Normalised Cartesian orbitals:

                        Set   Shell   Orbital            Exponent    Coefficient

                          1       1    1px               0.126928       0.107991
                          1       1    1py               0.126928       0.107991
                          1       1    1pz               0.126928       0.107991

                          2       1    1s                0.146513       0.168779

                          3       1    1px               0.514046       0.620430
                          3       1    1py               0.514046       0.620430
                          3       1    1pz               0.514046       0.620430

                          4       1    1fx3              0.639079       0.537591
                          4       1    1fx2y             0.639079       1.202091
                          4       1    1fx2z             0.639079       1.202091
                          4       1    1fxy2             0.639079       1.202091
                          4       1    1fxyz             0.639079       2.082082
                          4       1    1fxz2             0.639079       1.202091
                          4       1    1fy3              0.639079       0.537591
                          4       1    1fy2z             0.639079       1.202091
                          4       1    1fyz2             0.639079       1.202091
                          4       1    1fz3              0.639079       0.537591

                          5       1    1px               1.085258       1.578906
                          5       1    1py               1.085258       1.578906
                          5       1    1pz               1.085258       1.578906

                          6       1    1dx2              1.095438       1.930581
                          6       1    1dxy              1.095438       3.343865
                          6       1    1dxz              1.095438       3.343865
                          6       1    1dy2              1.095438       1.930581
                          6       1    1dyz              1.095438       3.343865
                          6       1    1dz2              1.095438       1.930581

                          7       1    1s                1.236326       0.835622

                          8       1    1fx3              1.980057       6.846668
                          8       1    1fx2y             1.980057      15.309615
                          8       1    1fx2z             1.980057      15.309615
                          8       1    1fxy2             1.980057      15.309615
                          8       1    1fxyz             1.980057      26.517030
                          8       1    1fxz2             1.980057      15.309615
                          8       1    1fy3              1.980057       6.846668
                          8       1    1fy2z             1.980057      15.309615
                          8       1    1fyz2             1.980057      15.309615
                          8       1    1fz3              1.980057       6.846668

                          9       1    1gx4              2.274113      10.657824
                          9       1    1gx3y             2.274113      28.197951
                          9       1    1gx3z             2.274113      28.197951
                          9       1    1gx2y2            2.274113      36.403399
                          9       1    1gx2yz            2.274113      63.052536
                          9       1    1gx2z2            2.274113      36.403399
                          9       1    1gxy3             2.274113      28.197951
                          9       1    1gxy2z            2.274113      63.052536
                          9       1    1gxyz2            2.274113      63.052536
                          9       1    1gxz3             2.274113      28.197951
                          9       1    1gy4              2.274113      10.657824
                          9       1    1gy3z             2.274113      28.197951
                          9       1    1gy2z2            2.274113      36.403399
                          9       1    1gyz3             2.274113      28.197951
                          9       1    1gz4              2.274113      10.657824

                         10       1    1px               2.291208       4.018100
                         10       1    1py               2.291208       4.018100
                         10       1    1pz               2.291208       4.018100

                         11       1    1dx2              3.336915      13.560118
                         11       1    1dxy              3.336915      23.486813
                         11       1    1dxz              3.336915      23.486813
                         11       1    1dy2              3.336915      13.560118
                         11       1    1dyz              3.336915      23.486813
                         11       1    1dz2              3.336915      13.560118

                         12       1    1s                4.226853       2.100985

                         13       1    1px               4.837221      10.225511
                         13       1    1py               4.837221      10.225511
                         13       1    1pz               4.837221      10.225511

                         14       1    1fx3              6.162877      88.098259
                         14       1    1fx2y             6.162877     196.993695
                         14       1    1fx2z             6.162877     196.993695
                         14       1    1fxy2             6.162877     196.993695
                         14       1    1fxyz             6.162877     341.203089
                         14       1    1fxz2             6.162877     196.993695
                         14       1    1fy3              6.162877      88.098259
                         14       1    1fy2z             6.162877     196.993695
                         14       1    1fyz2             6.162877     196.993695
                         14       1    1fz3              6.162877      88.098259

                         15       1    1dx2              7.278188      53.082354
                         15       1    1dxy              7.278188      91.941335
                         15       1    1dxz              7.278188      91.941335
                         15       1    1dy2              7.278188      53.082354
                         15       1    1dyz              7.278188      91.941335
                         15       1    1dz2              7.278188      53.082354

                         16       1    1s               14.451113       5.282458

                         17       1    1dx2             15.874547     207.795818
                         17       1    1dxy             15.874547     359.912914
                         17       1    1dxz             15.874547     359.912914
                         17       1    1dy2             15.874547     207.795818
                         17       1    1dyz             15.874547     359.912914
                         17       1    1dz2             15.874547     207.795818

       Atomic covalent radius [Angstrom]:                                  0.720

       Atomic van der Waals radius [Angstrom]:                             1.470

     The atoms of this atomic kind are PAW atoms (GAPW):
       Hard Gaussian function radius:                                      1.512
       Rho0 radius:                                                        1.512
       Maximum GTO radius used for PAW projector construction:            24.566

     GAPW Soft Basis Set                                        aug-cc-pVDZ_soft

       Number of orbital shell sets:                                           6
       Number of orbital shells:                                               9
       Number of primitive Cartesian functions:                                8
       Number of Cartesian basis functions:                                   25
       Number of spherical basis functions:                                   23
       Norm type:                                                              2

       Normalised Cartesian orbitals:

                        Set   Shell   Orbital            Exponent    Coefficient

                          1       1    1px               0.085020       0.065440
                          1       1    1py               0.085020       0.065440
                          1       1    1pz               0.085020       0.065440

                          2       1    1s                0.098630       0.125434

                          3       1    1px               1.347000       1.051861
                                                         0.347100       0.173975
                          3       1    1py               1.347000       1.051861
                                                         0.347100       0.173975
                          3       1    1pz               1.347000       1.051861
                                                         0.347100       0.173975

                          3       2    2px               1.347000       0.000000
                                                         0.347100       0.379759
                          3       2    2py               1.347000       0.000000
                                                         0.347100       0.379759
                          3       2    2pz               1.347000       0.000000
                                                         0.347100       0.379759

                          4       1    1s                1.316000       0.013427
                                                         0.389700      -0.000820

                          4       2    2s                1.316000       0.492853
                                                         0.389700       0.199941

                          4       3    3s                1.316000       0.000000
                                                         0.389700       0.351526

                          5       1    1dx2              0.464000       0.429354
                          5       1    1dxy              0.464000       0.743664
                          5       1    1dxz              0.464000       0.743664
                          5       1    1dy2              0.464000       0.429354
                          5       1    1dyz              0.464000       0.743664
                          5       1    1dz2              0.464000       0.429354

                          6       1    1dx2              1.640000       3.911886
                          6       1    1dxy              1.640000       6.775585
                          6       1    1dxz              1.640000       6.775585
                          6       1    1dy2              1.640000       3.911886
                          6       1    1dyz              1.640000       6.775585
                          6       1    1dz2              1.640000       3.911886

     AE Potential information for                                            ALL

       Description:                                       All-electron potential
                                          Krack, Parrinello, PCCP 2, 2105 (2000)

       Gaussian exponent of the core charge distribution:              10.470541
       Electronic configuration (s p d ...):                           4   5   0

  3. Atomic kind: N                                     Number of atoms:       3

     Orbital Basis Set                                               aug-cc-pVDZ

       Number of orbital shell sets:                                           6
       Number of orbital shells:                                               9
       Number of primitive Cartesian functions:                               17
       Number of Cartesian basis functions:                                   25
       Number of spherical basis functions:                                   23
       Norm type:                                                              2

       Normalised Cartesian orbitals:

                        Set   Shell   Orbital            Exponent    Coefficient

                          1       1    1px               0.056110       0.038926
                          1       1    1py               0.056110       0.038926
                          1       1    1pz               0.056110       0.038926

                          2       1    1s                0.061240       0.087738

                          3       1    1px              13.550000       1.479258
                                                         2.917000       1.180072
                                                         0.797300       0.548036
                                                         0.218500       0.098423
                          3       1    1py              13.550000       1.479258
                                                         2.917000       1.180072
                                                         0.797300       0.548036
                                                         0.218500       0.098423
                          3       1    1pz              13.550000       1.479258
                                                         2.917000       1.180072
                                                         0.797300       0.548036
                                                         0.218500       0.098423

                          3       2    2px              13.550000       0.000000
                                                         2.917000       0.000000
                                                         0.797300       0.000000
                                                         0.218500       0.212939
                          3       2    2py              13.550000       0.000000
                                                         2.917000       0.000000
                                                         0.797300       0.000000
                                                         0.218500       0.212939
                          3       2    2pz              13.550000       0.000000
                                                         2.917000       0.000000
                                                         0.797300       0.000000
                                                         0.218500       0.212939

                          4       1    1s             9046.000000       0.462754
                                                      1357.000000       0.858723
                                                       309.300000       1.440591
                                                        87.730000       2.108533
                                                        28.560000       2.454153
                                                        10.210000       1.825915
                                                         3.838000       0.543758
                                                         0.746600       0.008838
                                                         0.224800      -0.000666

                          4       2    2s             9046.000000      -0.101145
                                                      1357.000000      -0.192492
                                                       309.300000      -0.314968
                                                        87.730000      -0.501437
                                                        28.560000      -0.593976
                                                        10.210000      -0.643503
                                                         3.838000      -0.238093
                                                         0.746600       0.314268
                                                         0.224800       0.134678

                          4       3    3s             9046.000000       0.000000
                                                      1357.000000       0.000000
                                                       309.300000       0.000000
                                                        87.730000       0.000000
                                                        28.560000       0.000000
                                                        10.210000       0.000000
                                                         3.838000       0.000000
                                                         0.746600       0.000000
                                                         0.224800       0.232679

                          5       1    1dx2              0.230000       0.125728
                          5       1    1dxy              0.230000       0.217768
                          5       1    1dxz              0.230000       0.217768
                          5       1    1dy2              0.230000       0.125728
                          5       1    1dyz              0.230000       0.217768
                          5       1    1dz2              0.230000       0.125728

                          6       1    1dx2              0.817000       1.155575
                          6       1    1dxy              0.817000       2.001514
                          6       1    1dxz              0.817000       2.001514
                          6       1    1dy2              0.817000       1.155575
                          6       1    1dyz              0.817000       2.001514
                          6       1    1dz2              0.817000       1.155575

     RI Auxiliary Basis Set                                    aug-cc-pVDZ-OPTRI

       Number of orbital shell sets:                                          17
       Number of orbital shells:                                              17
       Number of primitive Cartesian functions:                               17
       Number of Cartesian basis functions:                                   88
       Number of spherical basis functions:                                   69
       Norm type:                                                              2

       Normalised Cartesian orbitals:

                        Set   Shell   Orbital            Exponent    Coefficient

                          1       1    1s                0.091449       0.118521

                          2       1    1px               0.115183       0.095648
                          2       1    1py               0.115183       0.095648
                          2       1    1pz               0.115183       0.095648

                          3       1    1px               0.322548       0.346484
                          3       1    1py               0.322548       0.346484
                          3       1    1pz               0.322548       0.346484

                          4       1    1dx2              0.422464       0.364369
                          4       1    1dxy              0.422464       0.631106
                          4       1    1dxz              0.422464       0.631106
                          4       1    1dy2              0.422464       0.364369
                          4       1    1dyz              0.422464       0.631106
                          4       1    1dz2              0.422464       0.364369

                          5       1    1fx3              0.510986       0.324994
                          5       1    1fx2y             0.510986       0.726708
                          5       1    1fx2z             0.510986       0.726708
                          5       1    1fxy2             0.510986       0.726708
                          5       1    1fxyz             0.510986       1.258694
                          5       1    1fxz2             0.510986       0.726708
                          5       1    1fy3              0.510986       0.324994
                          5       1    1fy2z             0.510986       0.726708
                          5       1    1fyz2             0.510986       0.726708
                          5       1    1fz3              0.510986       0.324994

                          6       1    1px               0.679523       0.879418
                          6       1    1py               0.679523       0.879418
                          6       1    1pz               0.679523       0.879418

                          7       1    1s                0.726628       0.560911

                          8       1    1fx3              1.397681       3.126962
                          8       1    1fx2y             1.397681       6.992099
                          8       1    1fx2z             1.397681       6.992099
                          8       1    1fxy2             1.397681       6.992099
                          8       1    1fxyz             1.397681      12.110671
                          8       1    1fxz2             1.397681       6.992099
                          8       1    1fy3              1.397681       3.126962
                          8       1    1fy2z             1.397681       6.992099
                          8       1    1fyz2             1.397681       6.992099
                          8       1    1fz3              1.397681       3.126962

                          9       1    1px               1.431573       2.232066
                          9       1    1py               1.431573       2.232066
                          9       1    1pz               1.431573       2.232066

                         10       1    1gx4              1.484177       3.296257
                         10       1    1gx3y             1.484177       8.721077
                         10       1    1gx3z             1.484177       8.721077
                         10       1    1gx2y2            1.484177      11.258862
                         10       1    1gx2yz            1.484177      19.500921
                         10       1    1gx2z2            1.484177      11.258862
                         10       1    1gxy3             1.484177       8.721077
                         10       1    1gxy2z            1.484177      19.500921
                         10       1    1gxyz2            1.484177      19.500921
                         10       1    1gxz3             1.484177       8.721077
                         10       1    1gy4              1.484177       3.296257
                         10       1    1gy3z             1.484177       8.721077
                         10       1    1gy2z2            1.484177      11.258862
                         10       1    1gyz3             1.484177       8.721077
                         10       1    1gz4              1.484177       3.296257

                         11       1    1dx2              1.846235       4.812954
                         11       1    1dxy              1.846235       8.336280
                         11       1    1dxz              1.846235       8.336280
                         11       1    1dy2              1.846235       4.812954
                         11       1    1dyz              1.846235       8.336280
                         11       1    1dz2              1.846235       4.812954

                         12       1    1s                2.651372       1.480857

                         13       1    1px               3.015942       5.665247
                         13       1    1py               3.015942       5.665247
                         13       1    1pz               3.015942       5.665247

                         14       1    1dx2              3.588066      15.396259
                         14       1    1dxy              3.588066      26.667102
                         14       1    1dxz              3.588066      26.667102
                         14       1    1dy2              3.588066      15.396259
                         14       1    1dyz              3.588066      26.667102
                         14       1    1dz2              3.588066      15.396259

                         15       1    1fx3              4.092837      35.075951
                         15       1    1fx2y             4.092837      78.432212
                         15       1    1fx2z             4.092837      78.432212
                         15       1    1fxy2             4.092837      78.432212
                         15       1    1fxyz             4.092837     135.848576
                         15       1    1fxz2             4.092837      78.432212
                         15       1    1fy3              4.092837      35.075951
                         15       1    1fy2z             4.092837      78.432212
                         15       1    1fyz2             4.092837      78.432212
                         15       1    1fz3              4.092837      35.075951

                         16       1    1dx2              6.973227      49.251404
                         16       1    1dxy              6.973227      85.305933
                         16       1    1dxz              6.973227      85.305933
                         16       1    1dy2              6.973227      49.251404
                         16       1    1dyz              6.973227      85.305933
                         16       1    1dz2              6.973227      49.251404

                         17       1    1s                9.674522       3.909599

       Atomic covalent radius [Angstrom]:                                  0.750

       Atomic van der Waals radius [Angstrom]:                             1.550

     The atoms of this atomic kind are PAW atoms (GAPW):
       Hard Gaussian function radius:                                      1.512
       Rho0 radius:                                                        1.512
       Maximum GTO radius used for PAW projector construction:            24.566

     GAPW Soft Basis Set                                        aug-cc-pVDZ_soft

       Number of orbital shell sets:                                           6
       Number of orbital shells:                                               9
       Number of primitive Cartesian functions:                               10
       Number of Cartesian basis functions:                                   25
       Number of spherical basis functions:                                   23
       Norm type:                                                              2

       Normalised Cartesian orbitals:

                        Set   Shell   Orbital            Exponent    Coefficient

                          1       1    1px               0.056110       0.038926
                          1       1    1py               0.056110       0.038926
                          1       1    1pz               0.056110       0.038926

                          2       1    1s                0.061240       0.087738

                          3       1    1px               2.917000       1.180072
                                                         0.797300       0.548036
                                                         0.218500       0.098423
                          3       1    1py               2.917000       1.180072
                                                         0.797300       0.548036
                                                         0.218500       0.098423
                          3       1    1pz               2.917000       1.180072
                                                         0.797300       0.548036
                                                         0.218500       0.098423

                          3       2    2px               2.917000       0.000000
                                                         0.797300       0.000000
                                                         0.218500       0.212939
                          3       2    2py               2.917000       0.000000
                                                         0.797300       0.000000
                                                         0.218500       0.212939
                          3       2    2pz               2.917000       0.000000
                                                         0.797300       0.000000
                                                         0.218500       0.212939

                          4       1    1s                3.838000       0.543758
                                                         0.746600       0.008838
                                                         0.224800      -0.000666

                          4       2    2s                3.838000      -0.238093
                                                         0.746600       0.314268
                                                         0.224800       0.134678

                          4       3    3s                3.838000       0.000000
                                                         0.746600       0.000000
                                                         0.224800       0.232679

                          5       1    1dx2              0.230000       0.125728
                          5       1    1dxy              0.230000       0.217768
                          5       1    1dxz              0.230000       0.217768
                          5       1    1dy2              0.230000       0.125728
                          5       1    1dyz              0.230000       0.217768
                          5       1    1dz2              0.230000       0.125728

                          6       1    1dx2              0.817000       1.155575
                          6       1    1dxy              0.817000       2.001514
                          6       1    1dxz              0.817000       2.001514
                          6       1    1dy2              0.817000       1.155575
                          6       1    1dyz              0.817000       2.001514
                          6       1    1dz2              0.817000       1.155575

     AE Potential information for                                            ALL

       Description:                                       All-electron potential
                                          Krack, Parrinello, PCCP 2, 2105 (2000)

       Gaussian exponent of the core charge distribution:               5.979100
       Electronic configuration (s p d ...):                           4   3   0


 MOLECULE KIND INFORMATION


 All atoms are their own molecule, skipping detailed information


 TOTAL NUMBERS AND MAXIMUM NUMBERS

  Total number of            - Atomic kinds:                                   3
                             - Atoms:                                          9
                             - Shell sets:                                    54
                             - Shells:                                        87
                             - Primitive Cartesian functions:                174
                             - Cartesian basis functions:                    237
                             - Spherical basis functions:                    219

[...]
 xc_functional_eval                 532 10.9    0.001    0.002    1.065    1.495
 pbe_lda_eval                       532 11.9    1.065    1.493    1.065    1.493
 mp2_ri_gpw_compute_in                1  5.0    0.001    0.002    1.457    1.457
 mp2_ri_gpw_compute_in_loop           1  6.0    0.000    0.000    1.439    1.439
 contract_B_L                         4  7.0    0.003    0.004    1.336    1.390
 integrate_four_center_bin         6376 11.0    0.516    1.296    0.516    1.296
 mp_sendrecv_dv                   33110 10.0    1.243    1.285    1.243    1.285
 pw_scatter_p                       841 12.1    1.092    1.256    1.092    1.256
 rs_gather_matrices                  77 10.0    0.001    0.004    1.088    1.221
 dbt_total                            8  8.0    0.000    0.000    1.149    1.149
 grid_integrate_task_list            77 10.0    0.117    1.132    0.117    1.132
 dbt_contract                         4  9.0    0.001    0.001    0.717    1.130
 create_qs_kind_set                   1  2.0    0.000    0.000    1.110    1.111
 read_qs_kind                         3  3.0    0.615    0.630    1.110    1.111
 pw_gather_p                        767 11.8    0.845    1.069    0.845    1.069
 cp2k_distribution_to_z_slices       77  9.0    0.355    0.389    0.821    1.003
 transfer_pw2rs_90                   77 12.0    0.194    0.227    0.843    1.003
 rs_grid_zero                       387 11.2    0.870    0.902    0.870    0.902
 rpa_num_int_RPA_matrix_operati     100  7.0    0.001    0.003    0.900    0.901
 fft_wrap_pw1pw2_90                 154 10.5    0.023    0.039    0.790    0.891
 transfer_rs2pw_90                   77  9.0    0.185    0.215    0.779    0.864
 mp_isendrecv_dv                  66220 12.0    0.461    0.855    0.461    0.855
 calculate_rho_atom                 231  9.0    0.414    0.834    0.414    0.834
 pw_derive                          687 11.3    0.754    0.817    0.754    0.817
 qs_energies_init_hamiltonians        1  3.0    0.000    0.000    0.759    0.759
 build_core_hamiltonian_matrix        1  4.0    0.000    0.000    0.747    0.747
 overlap_condnum                      1  5.0    0.000    0.000    0.744    0.745
 calc_mat_Q                         100  8.0    0.000    0.000    0.651    0.657
 mp_sum_dv                        17812 11.3    0.561    0.653    0.561    0.653
 contract_S_to_Q                    100  9.0    0.001    0.001    0.639    0.644
 calculate_dm_sparse                 76  6.0    0.001    0.001    0.632    0.644
 cp_dbcsr_plus_fm_fm_t               76  7.0    0.001    0.001    0.631    0.643
 arnoldi_conjugate_gradient           5  6.0    0.015    0.017    0.633    0.633
 compute_vec_Sigma_x_minus_vxc_       1  4.0    0.000    0.000    0.628    0.629
 pw_copy                           1150 10.6    0.574    0.629    0.574    0.629
 pw_poisson_rebuild                  77  9.0    0.000    0.000    0.570    0.593
 ps_wavelet_create                    1 10.0    0.000    0.000    0.570    0.593
 RS_z_slice_distribution              1 11.0    0.497    0.553    0.570    0.593
 mp_cart_create                     477 10.1    0.492    0.579    0.493    0.580
 dbcsr_complete_redistribute        255  8.4    0.013    0.016    0.553    0.562
 calculate_rho_atom_coeff            77  6.0    0.015    0.032    0.561    0.561
 dbt_pgrid_create_expert             84 10.8    0.000    0.000    0.458    0.539
 dbt_copy                            12 10.1    0.000    0.000    0.135    0.522
 transfer_pw2rs_10                   77 12.0    0.184    0.218    0.494    0.518
 pw_copy_to_array                   767 11.8    0.331    0.515    0.331    0.515
 transfer_rs2pw_10                   77  9.0    0.187    0.201    0.496    0.508
 parser_read_line                130504  4.0    0.044    0.049    0.495    0.507
 dbt_reshape                          8 11.6    0.011    0.016    0.118    0.505
 mp_waitall_2                        52 15.7    0.105    0.494    0.105    0.494
 dbt_communicate_buffer               8 12.6    0.001    0.001    0.102    0.489
 pw_poisson_set                      78  8.9    0.002    0.002    0.458    0.466
 parser_read_line_low               146  5.0    0.044    0.200    0.450    0.464
 cp_fm_cholesky_invert              101  8.0    0.427    0.447    0.427    0.447
 broadcast_input_information        146  6.0    0.108    0.121    0.406    0.440
 mp2_main_alloc_hfx                   1  4.0    0.177    0.438    0.177    0.438
 mp_sum_i                            21  9.7    0.262    0.438    0.262    0.438
 restraint_control                    1  2.0    0.000    0.000    0.261    0.437
 mp_isend_dm3                      2784 11.5    0.172    0.432    0.172    0.432
 integrate_four_center_getP          77 10.0    0.027    0.031    0.407    0.415
 mp_irecv_dm3                      2784 11.5    0.208    0.409    0.208    0.409
 Vh_1c_gg_integrals                  77  8.0    0.009    0.181    0.233    0.409
 integrate_four_center_dist_KS       77 10.0    0.028    0.034    0.405    0.406
 copy_fm_to_dbcsr                   156  8.1    0.001    0.001    0.394    0.404
 dbcsr_sym_matrix_vector_mult      2192  7.0    0.034    0.037    0.313    0.388
 pw_integral_ab_c1d_c1d_gs           77  9.0    0.250    0.253    0.332    0.359
 mp_max_i                           589  3.0    0.155    0.356    0.155    0.356
 dbt_remap                            8 10.0    0.002    0.002    0.347    0.351
 copy_dbcsr_to_fm                    99  6.4    0.002    0.002    0.335    0.338
 mp_alltoall_z11v                   308 13.5    0.324    0.337    0.324    0.337
 fft_wrap_pw1pw2_30                 154 10.5    0.004    0.005    0.320    0.332
 dbt_nd_mp_comm                       8 11.0    0.000    0.000    0.294    0.321
 init_scf_run                         1  3.0    0.000    0.000    0.313    0.313
 pw_copy_from_array                 841 12.1    0.249    0.313    0.249    0.313
 pw_axpy                            765  9.3    0.283    0.311    0.283    0.311
 dbt_tas_multiply                     8 11.5    0.000    0.000    0.290    0.290
 dbt_tas_total                        8 12.5    0.002    0.005    0.286    0.286
 cp_fm_syrk                           3  7.0    0.249    0.283    0.249    0.283
 scf_env_initial_rho_setup            1  4.0    0.000    0.000    0.275    0.276
 dbcsr_multiply_generic             105  8.1    0.006    0.006    0.264    0.271
 update_ks_atom                      77  8.0    0.011    0.021    0.128    0.271
 mp_bcast_dm                       1386  9.0    0.117    0.258    0.117    0.258
 mp_alltoall_i11v                   866  9.3    0.250    0.252    0.250    0.252
 cp_fm_cholesky_decompose           102  9.0    0.238    0.240    0.238    0.240
 compute_Erpa_by_freq_int           100  8.0    0.001    0.002    0.237    0.238
 mp_isend_dv                      23887 11.8    0.173    0.235    0.173    0.235
 qs_init_subsys                       1  2.0    0.005    0.009    0.226    0.227
 dbcsr_desymmetrize_deep            101  7.4    0.003    0.004    0.221    0.226
 create_B                             1  8.0    0.000    0.000    0.213    0.220
 qs_env_setup                         1  3.0    0.000    0.000    0.213    0.216
 qs_env_rebuild_pw_env                2  3.5    0.000    0.000    0.212    0.216
 pw_env_rebuild                       1  5.0    0.001    0.001    0.212    0.215
 mp_sum_l                           943  6.1    0.164    0.213    0.164    0.213
 yz_to_xz                           154 14.0    0.014    0.016    0.202    0.213
 mp2_eri_3c_integrate                 1  7.0    0.003    0.005    0.073    0.211
 mp_bcast_i_src                     584  7.0    0.139    0.209    0.139    0.209
 integrate_set_3c                  4860  8.0    0.061    0.184    0.070    0.206
 offload_free_buffer                 85  8.4    0.179    0.206    0.179    0.206
 mp_bcast_am_src                    146  7.0    0.139    0.187    0.153    0.204
 cp_fm_to_fm_submat_general         112 10.1    0.148    0.201    0.148    0.201
 dbcsr_add_d                       3350  7.0    0.003    0.004    0.028    0.199
 dbcsr_add_anytype                 3350  8.0    0.004    0.024    0.025    0.195
 integrate_four_center_load          77 10.0    0.000    0.001    0.143    0.191
 hfx_load_balance                     1 11.0    0.000    0.000    0.143    0.190
 cp_fm_redistribute_start            82  8.0    0.104    0.129    0.150    0.182
 create_A                             1  8.0    0.001    0.001    0.176    0.181
 calculate_rho0_atom                231  9.0    0.172    0.179    0.172    0.179
 fft_wrap_pw1pw2_10                 154 10.5    0.002    0.002    0.169    0.171
 pw_zero                            458 10.3    0.148    0.171    0.148    0.171
 hfx_load_balance_range               1 12.0    0.000    0.000    0.122    0.170
 dbt_tas_dbm                          8 13.5    0.000    0.000    0.158    0.158
 dbm_multiply                         8 15.5    0.130    0.155    0.130    0.155
 pw_grid_setup                        4  6.0    0.000    0.000    0.151    0.154
 pw_grid_setup_internal               4  7.0    0.003    0.004    0.151    0.154
 dbcsr_col_vec_to_rep_row          2192  8.0    0.015    0.018    0.091    0.152
 xz_to_yz                           154 11.0    0.009    0.011    0.146    0.149
 hybrid_alltoall_any                311 10.9    0.006    0.007    0.137    0.146
 mp_bcast_dv                       2274  9.0    0.066    0.139    0.066    0.139
 dbcsr_rep_row_to_rep_col_vec      2192  8.0    0.011    0.013    0.061    0.138
 dbcsr_finalize                    4982 10.8    0.009    0.047    0.032    0.137
 mp_rank_compare                   1608 12.9    0.131    0.135    0.131    0.135
 vxc_of_r_new                       456  9.0    0.000    0.020    0.002    0.135
 dbt_tas_mm_1N                        6 14.5    0.000    0.000    0.106    0.132
 fm_general_add_bse                   5 10.2    0.000    0.000    0.117    0.132
 multiply_cannon                    105  9.1    0.012    0.014    0.118    0.125
 dbt_tas_estimate_result_nze          4 12.0    0.001    0.005    0.116    0.120
 make_m2s                           210  9.1    0.006    0.006    0.109    0.118
 mp_alltoall_i22                    356  9.1    0.079    0.092    0.079    0.092
 multiply_cannon_loop               105 10.1    0.019    0.020    0.083    0.089
 cp_fm_symm                          77  7.0    0.078    0.085    0.078    0.085
 scale_and_distribute               154 10.0    0.076    0.082    0.076    0.082
 cp_fm_uplo_to_full                 104  8.0    0.025    0.076    0.025    0.076
 rs_scatter_matrices                 77  7.0    0.001    0.002    0.075    0.076
 pw_grid_sort                         4  8.0    0.043    0.045    0.067    0.070
 make_images                        210 10.1    0.012    0.013    0.062    0.069
 postprocess_bse                      1  9.0    0.000    0.000    0.066    0.069
 dbcsr_merge_all                   4091 11.5    0.012    0.054    0.016    0.065
 pw_scale                           305  9.5    0.051    0.064    0.051    0.064
 dbcsr_iterator_start             28376  8.8    0.035    0.053    0.041    0.062
 dbcsr_copy                        9465  7.6    0.034    0.038    0.055    0.060
 scf_post_calculation_gpw             1  3.0    0.000    0.000    0.056    0.056
 write_available_results              1  4.0    0.000    0.000    0.056    0.056
 write_mo_free_results                1  5.0    0.003    0.004    0.056    0.056
 compute_max_radius                   1  6.0    0.024    0.055    0.024    0.055
 dbcsr_create_new                 12040  9.0    0.032    0.041    0.040    0.049
 mixing_init                          1  5.0    0.041    0.046    0.046    0.046
 dbt_tas_replicate                    8 13.5    0.017    0.025    0.042    0.043
 mp_sum_im                        10899 13.0    0.031    0.041    0.031    0.041
 dbcsr_iterator_stop              28376  8.8    0.025    0.034    0.030    0.041
 mp_maxloc_dv                      1531  1.0    0.039    0.041    0.039    0.041
 mp_bcast_iv                        197  6.4    0.015    0.040    0.015    0.040
 dbt_distribution_new_expert         76 10.1    0.001    0.002    0.037    0.039
 mp_bcast_iv_src                    146  7.0    0.006    0.038    0.006    0.038
 mp_irecv_dv                      23905 11.8    0.024    0.035    0.024    0.035
 cube_transpose_2                   154 11.0    0.003    0.003    0.032    0.035
 make_images_sizes                  210 11.1    0.000    0.000    0.031    0.035
 fm_general_add_bse_1_setup           5 11.2    0.027    0.035    0.027    0.035
 mp_alltoall_i44                    210 12.1    0.031    0.035    0.031    0.035
 mp_comm_split_direct                48 14.5    0.023    0.033    0.023    0.033
 pw_grid_distribute                   4  8.0    0.010    0.010    0.020    0.033
 fm_general_add_bse_5_comm_buff       5 11.2    0.000    0.000    0.019    0.033
 communicate_buffer                   5 12.2    0.001    0.001    0.019    0.033
 rs_grid_create_descriptor            4  6.0    0.001    0.001    0.032    0.032
 get_multipoles_mo                    1 10.0    0.000    0.000    0.030    0.032
 dbt_tas_distribution_new            98 11.9    0.021    0.022    0.031    0.031
 create_integ_mat                     4  6.0    0.001    0.001    0.031    0.031
 cube_transpose_1                   154 14.0    0.003    0.003    0.028    0.031
 create_fast_row_vec_access        4384  8.0    0.018    0.020    0.027    0.031
 create_fast_col_vec_access        4384  8.0    0.018    0.020    0.027    0.030
 dbt_split_blocks_generic            20  8.8    0.006    0.007    0.029    0.030
 dbcsr_crop_matrix                  380 10.0    0.003    0.003    0.028    0.030
 print_transition_amplitudes          1 10.0    0.000    0.000    0.029    0.029
 print_transition_amplitudes_co      50 11.0    0.000    0.001    0.029    0.029
 filter_eigvec_contrib               50 12.0    0.016    0.017    0.029    0.029
 mult_B_with_W                        1  8.0    0.000    0.000    0.028    0.029
 array2fm                             4  7.0    0.000    0.000    0.027    0.028
 fm_general_add_bse_4_buf_from_       1 10.0    0.019    0.027    0.019    0.027
 hirshfeld_integration                1  6.0    0.001    0.007    0.026    0.026
 dbt_tas_mm_2                         2 14.5    0.000    0.000    0.026    0.026
 sort_shells                          4  9.0    0.024    0.025    0.024    0.025
 mp_cart_sub                        204  8.4    0.024    0.025    0.024    0.025
 mp_cart_rank                     87732 10.0    0.023    0.025    0.023    0.025
 fm_general_add_bse_4_buf_from_       1 10.0    0.021    0.025    0.021    0.025
 self_consistency_check              76  5.0    0.000    0.000    0.018    0.025
 mp2_main_free_hfx                    1  4.0    0.010    0.025    0.010    0.025
 cp_sm_mix                           76  6.0    0.000    0.001    0.018    0.024
 mp_max_d                            78  6.9    0.018    0.024    0.018    0.024
 mp_alltoall_i                       41 13.9    0.019    0.024    0.019    0.024
 mp_sum_iv                          311  9.6    0.017    0.023    0.017    0.023
 dbcsr_copy_submatrix               380 11.0    0.003    0.004    0.021    0.023
 calculate_hirshfeld_normalizat       1  6.0    0.001    0.007    0.021    0.023
 dbcsr_work_create                 4645 10.6    0.004    0.015    0.006    0.023
 abc_contract                      4860  9.0    0.008    0.023    0.008    0.023
 write_mo_set_to_restart             76  5.0    0.001    0.006    0.008    0.022
 dbcsr_work_destroy_all            4645 11.6    0.004    0.015    0.005    0.021
 multiply_cannon_metrocomm3        2940 11.1    0.005    0.005    0.015    0.021
 cp_fm_create                       389  7.8    0.012    0.021    0.012    0.021
 dbt_create_new                      40  9.5    0.001    0.001    0.019    0.020
 xc_pw_smooth                        76 10.0    0.000    0.000    0.017    0.020
 cp_dbcsr_sm_fm_multiply              3 11.0    0.000    0.000    0.020    0.020
 dbm_reserve_blocks                  70 14.1    0.019    0.020    0.019    0.020
 convert_to_new_pgrid                24 13.5    0.005    0.006    0.018    0.020
 mp_comm_split                       82  9.0    0.019    0.019    0.019    0.020
 dbt_tas_reshape                     10 13.8    0.000    0.000    0.018    0.020
 write_mo_set_low                     4  6.0    0.000    0.000    0.007    0.020
 cp_fm_write_unformatted              4  7.0    0.006    0.015    0.007    0.020
 make_images_data                   210 11.1    0.003    0.003    0.010    0.020
 dbm_redistribute                    12 13.4    0.017    0.019    0.017    0.019
 mp_bcast_av                        766  1.0    0.006    0.009    0.014    0.019
 mp_allgather_i34                   105 10.1    0.017    0.019    0.017    0.019
 multiply_cannon_metrocomm4        2754 11.1    0.008    0.008    0.016    0.019
 dbcsr_scale_anytype               3351  9.0    0.006    0.007    0.017    0.018
 dbcsr_data_release               60511 10.2    0.011    0.018    0.011    0.018
 dbcsr_sym_matrix_vector_mult_l    2192  8.0    0.009    0.010    0.015    0.017
 multiply_cannon_metrocomm1        2940 11.1    0.003    0.004    0.009    0.017
 get_2c_integrals                     1  6.0    0.000    0.000    0.016    0.017
 dbt_tas_create_split                44 13.2    0.000    0.000    0.016    0.016
 dbt_tas_create_split_rows_or_c      44 14.2    0.000    0.000    0.016    0.016
 array2fm_info                        4  8.0    0.015    0.016    0.015    0.016
 Q_trace_and_add_unit_matrix        100  8.0    0.001    0.001    0.011    0.016
 multiply_cannon_metrocomm2        2673 11.1    0.008    0.008    0.014    0.016
 pw_grid_assign                       4  8.0    0.014    0.015    0.015    0.016
 calc_fm_mat_S_rpa                  100  9.0    0.012    0.015    0.012    0.015
 hfx_create                           1  2.0    0.014    0.014    0.014    0.015
 reshape_mm_compatible                8 13.5    0.000    0.000    0.015    0.015
 pw_grid_remap                        4  8.0    0.003    0.003    0.013    0.015
 multiply_cannon_multrec           2940 11.1    0.008    0.014    0.009    0.014
 dbt_tas_reserve_blocks_index        62 13.1    0.000    0.001    0.013    0.014
 reshape_mm_small                     8 13.5    0.002    0.002    0.014    0.014
 fm_general_add_bse_6_buffer_to       1 10.0    0.007    0.014    0.007    0.014
 dbt_tas_communicate_buffer          18 15.7    0.002    0.002    0.010    0.014
 fm_general_add_bse_2_comm_entr       5 11.2    0.000    0.000    0.010    0.013
 dbcsr_make_images_dense            154 10.0    0.003    0.003    0.008    0.013
 dbcsr_data_new                   29646 10.8    0.007    0.013    0.007    0.013
 mp_send_dv                           4  8.0    0.001    0.013    0.001    0.013
 dbcsr_destroy                     7581  8.6    0.008    0.008    0.011    0.013
 fm_general_add_bse_3_alloc_buf       5 11.2    0.007    0.013    0.007    0.013
 hfx_load_balance_redist              1 12.0    0.009    0.010    0.012    0.012
 -------------------------------------------------------------------------------

 The number of warnings for this run is : 1
 
 -------------------------------------------------------------------------------
  **** **** ******  **  PROGRAM ENDED AT                 2025-03-11 06:30:31.623
 ***** ** ***  *** **   PROGRAM RAN ON                              i02r04c02s06
 **    ****   ******    PROGRAM RAN BY                                   di38fab
 ***** **    ** ** **   PROGRAM PROCESS ID                               3224266
  **** **  *******  **  PROGRAM STOPPED IN /hppfs/scratch/04/di38fab/05_MOL/aUKB
                                           qsEOTmq69kFe5R_nOg/5k_set_final_qzvp/
                                           VABHUB/aug-cc-pVDZ
