 DBCSR| CPU Multiplication driver                                           XSMM (U)
 DBCSR| Multrec recursion limit                                              512 (U)
 DBCSR| Multiplication stack size                                           1000 (D)
 DBCSR| Maximum elements for images                                    UNLIMITED (U)
 DBCSR| Multiplicative factor virtual images                                   1 (U)
 DBCSR| Use multiplication densification                                       T (D)
 DBCSR| Multiplication size stacks                                             3 (U)
 DBCSR| Use memory pool for CPU allocation                                     F (U)
 DBCSR| Number of 3D layers                                               SINGLE (U)
 DBCSR| Use MPI memory allocation                                              F (U)
 DBCSR| Use RMA algorithm                                                      F (U)
 DBCSR| Use Communication thread                                               T (U)
 DBCSR| Communication thread load                                             60 (D)
 DBCSR| MPI: My process id                                                     0
 DBCSR| MPI: Number of processes                                              80
 DBCSR| OMP: Current number of threads                                         8
 DBCSR| OMP: Max number of threads                                             8
 DBCSR| Split modifier for TAS multiplication algorithm                  1.0E+00 (U)


  **** **** ******  **  PROGRAM STARTED AT               2025-06-03 18:53:27.036
 ***** ** ***  *** **   PROGRAM STARTED ON                 n2cn0171.ab2021.local
 **    ****   ******    PROGRAM STARTED BY                              metdyn02
 ***** **    ** ** **   PROGRAM PROCESS ID                               3798484
  **** **  *******  **  PROGRAM STARTED IN /scratch/hpc-prf-metdyn/metdyn02_Remi
                                           /10_MOL/05_MOL/aUKBqsEOTmq69kFe5R_nOg
                                           /5k_set_final_qzvp/BOLNAR/SZVSR/GW+BS
                                           E/RILIM

 CP2K| version string:                 CP2K version 2025.1 (Development Version)
 CP2K| source code revision number:                                  git:32ddf85
 CP2K| cp2kflags: omp libint fftw3 libxc libgrpp elpa parallel scalapack mpi_f08
 CP2K|             cosma xsmm plumed2 spglib libvori libbqb libvdwxc hdf5
 CP2K| is freely available from                            https://www.cp2k.org/
 CP2K| Program compiled at                         Mon May 19 11:32:37 CEST 2025
 CP2K| Program compiled on                                              n2login1
 CP2K| Program compiled for                                                local
 CP2K| Data directory path    /opt/software/pc2/EB-SW/software/CP2K/2024.1-foss-
 CP2K| Input file name                                                    GW.inp

 GLOBAL| Force Environment number                                              1
 GLOBAL| Basis set file name            /scratch/hpc-prf-metdyn/metdyn02_Remi/BA
 GLOBAL| Potential file name            /pc2/groups/hpc-prf-metdyn/metdyn02_Remi
 GLOBAL| MM Potential file name                                     MM_POTENTIAL
 GLOBAL| Coordinate file name                                      __STD_INPUT__
 GLOBAL| Method name                                                        CP2K
 GLOBAL| Project name                                                       MoS2
 GLOBAL| Run type                                                         ENERGY
 GLOBAL| FFT library                                                       FFTW3
 GLOBAL| Diagonalization library                                            ELPA
 GLOBAL| Cholesky decomposition library                                ScaLAPACK
 GLOBAL| DGEMM library                                                      BLAS
 GLOBAL| Minimum number of eigenvectors for ELPA usage                        16
 GLOBAL| Orthonormality check for eigenvectors                          DISABLED
 GLOBAL| Matrix multiplication library                                     COSMA
 GLOBAL| All-to-all communication in single precision                          F
 GLOBAL| FFTs using library dependent lengths                                  F
 GLOBAL| Grid backend                                                       AUTO
 GLOBAL| Global print level                                               MEDIUM
 GLOBAL| MPI I/O enabled                                                       T
 GLOBAL| Total number of message passing processes                            80
 GLOBAL| Number of threads for this process                                    8
 GLOBAL| This output is from process                                           0
 GLOBAL| OpenMP stack size per thread (OMP_STACKSIZE)                    default
 GLOBAL| CPU model name                          AMD EPYC 7763 64-Core Processor
 GLOBAL| CPUID                                                              1002

 MEMORY| system memory details [Kb]
 MEMORY|                        rank 0           min           max       average
 MEMORY| MemTotal            263897592     263897572     263897656     263897601
 MEMORY| MemFree             245965032     245905964     251087220     248043306
 MEMORY| Buffers                 49496         24848        132108         59627
 MEMORY| Cached               12609360       8199204      12960912      10673706
 MEMORY| Slab                  1987984       1447368       2488808       1880012
 MEMORY| SReclaimable           374260        230948        829044        415239
 MEMORY| MemLikelyFree       258998148     258578584     259649580     259191879


 *** Fundamental physical constants (SI units) ***

 *** Literature: B. J. Mohr and B. N. Taylor,
 ***             CODATA recommended values of the fundamental physical
 ***             constants: 2006, Web Version 5.1
 ***             http://physics.nist.gov/constants

 Speed of light in vacuum [m/s]                             2.99792458000000E+08
 Magnetic constant or permeability of vacuum [N/A**2]       1.25663706143592E-06
 Electric constant or permittivity of vacuum [F/m]          8.85418781762039E-12
 Planck constant (h) [J*s]                                  6.62606896000000E-34
 Planck constant (h-bar) [J*s]                              1.05457162825177E-34
 Elementary charge [C]                                      1.60217648700000E-19
 Electron mass [kg]                                         9.10938215000000E-31
 Electron g factor [ ]                                     -2.00231930436220E+00
 Proton mass [kg]                                           1.67262163700000E-27
 Fine-structure constant                                    7.29735253760000E-03
 Rydberg constant [1/m]                                     1.09737315685270E+07
 Avogadro constant [1/mol]                                  6.02214179000000E+23
 Boltzmann constant [J/K]                                   1.38065040000000E-23
 Atomic mass unit [kg]                                      1.66053878200000E-27
 Bohr radius [m]                                            5.29177208590000E-11

 *** Conversion factors ***

 [u] -> [a.u.]                                              1.82288848426455E+03
 [Angstrom] -> [Bohr] = [a.u.]                              1.88972613288564E+00
 [a.u.] = [Bohr] -> [Angstrom]                              5.29177208590000E-01
 [a.u.] -> [s]                                              2.41888432650478E-17
 [a.u.] -> [fs]                                             2.41888432650478E-02
 [a.u.] -> [J]                                              4.35974393937059E-18
 [a.u.] -> [N]                                              8.23872205491840E-08
 [a.u.] -> [K]                                              3.15774647902944E+05
 [a.u.] -> [kJ/mol]                                         2.62549961709828E+03
 [a.u.] -> [kcal/mol]                                       6.27509468713739E+02
 [a.u.] -> [Pa]                                             2.94210107994716E+13
 [a.u.] -> [bar]                                            2.94210107994716E+08
 [a.u.] -> [atm]                                            2.90362800883016E+08
 [a.u.] -> [eV]                                             2.72113838565563E+01
 [a.u.] -> [Hz]                                             6.57968392072181E+15
 [a.u.] -> [1/cm] (wave numbers)                            2.19474631370540E+05
 [a.u./Bohr**2] -> [1/cm]                                   5.14048714338585E+03
 

 CELL_TOP| Volume [angstrom^3]:                                     27000.000000
 CELL_TOP| Vector a [angstrom    30.000     0.000     0.000   |a| =    30.000000
 CELL_TOP| Vector b [angstrom     0.000    30.000     0.000   |b| =    30.000000
 CELL_TOP| Vector c [angstrom     0.000     0.000    30.000   |c| =    30.000000
 CELL_TOP| Angle (b,c), alpha [degree]:                                90.000000
 CELL_TOP| Angle (a,c), beta  [degree]:                                90.000000
 CELL_TOP| Angle (a,b), gamma [degree]:                                90.000000
 CELL_TOP| Numerically orthorhombic:                                         YES
 CELL_TOP| Periodicity                                                      NONE

 GENERATE|  Preliminary Number of Bonds generated:                             0
 GENERATE|  Achieved consistency in connectivity generation.

 CELL| Volume [angstrom^3]:                                         27000.000000
 CELL| Vector a [angstrom]:      30.000     0.000     0.000   |a| =    30.000000
 CELL| Vector b [angstrom]:       0.000    30.000     0.000   |b| =    30.000000
 CELL| Vector c [angstrom]:       0.000     0.000    30.000   |c| =    30.000000
 CELL| Angle (b,c), alpha [degree]:                                    90.000000
 CELL| Angle (a,c), beta  [degree]:                                    90.000000
 CELL| Angle (a,b), gamma [degree]:                                    90.000000
 CELL| Numerically orthorhombic:                                             YES
 CELL| Periodicity                                                          NONE

 CELL_REF| Volume [angstrom^3]:                                     27000.000000
 CELL_REF| Vector a [angstrom    30.000     0.000     0.000   |a| =    30.000000
 CELL_REF| Vector b [angstrom     0.000    30.000     0.000   |b| =    30.000000
 CELL_REF| Vector c [angstrom     0.000     0.000    30.000   |c| =    30.000000
 CELL_REF| Angle (b,c), alpha [degree]:                                90.000000
 CELL_REF| Angle (a,c), beta  [degree]:                                90.000000
 CELL_REF| Angle (a,b), gamma [degree]:                                90.000000
 CELL_REF| Numerically orthorhombic:                                         YES
 CELL_REF| Periodicity                                                      NONE

 *******************************************************************************
 *******************************************************************************
 **                                                                           **
 **     #####                         ##              ##                      **
 **    ##   ##            ##          ##              ##                      **
 **   ##     ##                       ##            ######                    **
 **   ##     ##  ##   ##  ##   #####  ##  ##   ####   ##    #####    #####    **
 **   ##     ##  ##   ##  ##  ##      ## ##   ##      ##   ##   ##  ##   ##   **
 **   ##  ## ##  ##   ##  ##  ##      ####     ###    ##   ######   ######    **
 **    ##  ###   ##   ##  ##  ##      ## ##      ##   ##   ##       ##        **
 **     #######   #####   ##   #####  ##  ##  ####    ##    #####   ##        **
 **           ##                                                    ##        **
 **                                                                           **
 **                                                ... make the atoms dance   **
 **                                                                           **
 **            Copyright (C) by CP2K developers group (2000-2025)             **
 **                      J. Chem. Phys. 152, 194103 (2020)                    **
 **                                                                           **
 *******************************************************************************

 DFT| Spin restricted Kohn-Sham (RKS) calculation                            RKS
 DFT| Multiplicity                                                             1
 DFT| Number of spin states                                                    1
 DFT| Charge                                                                   0
 DFT| Self-interaction correction (SIC)                                       NO
 DFT| Cutoffs: density                                              1.000000E-10
 DFT|          gradient                                             1.000000E-10
 DFT|          tau                                                  1.000000E-10
 DFT|          cutoff_smoothing_range                               0.000000E+00
 DFT| XC density smoothing                                                  NONE
 DFT| XC derivatives                                                          PW

 FUNCTIONAL| PBE:
 FUNCTIONAL| J.P.Perdew, K.Burke, M.Ernzerhof, Phys. Rev. Letter, vol. 77, n 18,
 FUNCTIONAL|  pp. 3865-3868, (1996)sx=0.750sc=1.000{spin unpolarized}           


 QS| Method:                                                                GAPW
 QS| Density plane wave grid type                        NON-SPHERICAL FULLSPACE
 QS| Number of grid levels:                                                    4
 QS| Density cutoff [a.u.]:                                                250.0
 QS| Multi grid cutoff [a.u.]: 1) grid level                               250.0
 QS|                           2) grid level                                83.3
 QS|                           3) grid level                                27.8
 QS|                           4) grid level                                 9.3
 QS| Grid level progression factor:                                          3.0
 QS| Relative density cutoff [a.u.]:                                        50.0
 QS| Interaction thresholds: eps_pgf_orb:                                1.0E-12
 QS|                         eps_filter_matrix:                          0.0E+00
 QS|                         eps_core_charge:                            1.0E-14
 QS|                         eps_rho_gspace:                             1.0E-12
 QS|                         eps_rho_rspace:                             1.0E-12
 QS|                         eps_gvg_rspace:                             1.0E-06
 QS|                         eps_ppl:                                    1.0E-02
 QS|                         eps_ppnl:                                   1.0E-08
 QS| GAPW|      One center basis from orbital basis primitives
 QS| GAPW|                   eps_fit:                                    1.0E-04
 QS| GAPW|                   eps_iso:                                    1.0E-12
 QS| GAPW|                   eps_svd:                                    1.0E-08
 QS| GAPW|                   eps_cpc:                                    1.0E-12
 QS| GAPW|   atom-r-grid: quadrature:                                     GC_LOG
 QS| GAPW|      atom-s-grid:  max l :                                          4
 QS| GAPW|      max_l_rho0 :                                                   2
 QS| GAPW|      At least one kind is NOT PAW, i.e. it has only soft AO 
 QS| GAPW|      The NOT PAW atoms are treated fully GPW


 ATOMIC KIND INFORMATION

  1. Atomic kind: O                                     Number of atoms:       4

     Orbital Basis Set                                      aug-SZV-MOLOPT-ae-SR

       Number of orbital shell sets:                                           2
       Number of orbital shells:                                               6
       Number of primitive Cartesian functions:                                7
       Number of Cartesian basis functions:                                   15
       Number of spherical basis functions:                                   14
       Norm type:                                                              2

       Normalised Cartesian orbitals:

                        Set   Shell   Orbital            Exponent    Coefficient

                          1       1    1s                0.162492       0.000000
                                                         0.380389       0.241686
                                                         1.169596       0.320234
                                                         5.033151      -0.239413

                          1       2    2s                0.162492       0.120425
                                                         0.380389       0.131001
                                                         1.169596      -0.000041
                                                         5.033151      -0.089217

                          1       3    2px               0.162492       0.000000
                                                         0.380389       0.166903
                                                         1.169596       1.053568
                                                         5.033151       1.675450
                          1       3    2py               0.162492       0.000000
                                                         0.380389       0.166903
                                                         1.169596       1.053568
                                                         5.033151       1.675450
                          1       3    2pz               0.162492       0.000000
                                                         0.380389       0.166903
                                                         1.169596       1.053568
                                                         5.033151       1.675450

                          1       4    3px               0.162492       0.001278
                                                         0.380389       0.422682
                                                         1.169596       0.000775
                                                         5.033151       0.003884
                          1       4    3py               0.162492       0.001278
                                                         0.380389       0.422682
                                                         1.169596       0.000775
                                                         5.033151       0.003884
                          1       4    3pz               0.162492       0.001278
                                                         0.380389       0.422682
                                                         1.169596       0.000775
                                                         5.033151       0.003884

                          1       5    3dx2              0.162492      -0.037898
                                                         0.380389       0.380180
                                                         1.169596       0.208664
                                                         5.033151       1.207157
                          1       5    3dxy              0.162492      -0.065641
                                                         0.380389       0.658491
                                                         1.169596       0.361417
                                                         5.033151       2.090858
                          1       5    3dxz              0.162492      -0.065641
                                                         0.380389       0.658491
                                                         1.169596       0.361417
                                                         5.033151       2.090858
                          1       5    3dy2              0.162492      -0.037898
                                                         0.380389       0.380180
                                                         1.169596       0.208664
                                                         5.033151       1.207157
                          1       5    3dyz              0.162492      -0.065641
                                                         0.380389       0.658491
                                                         1.169596       0.361417
                                                         5.033151       2.090858
                          1       5    3dz2              0.162492      -0.037898
                                                         0.380389       0.380180
                                                         1.169596       0.208664
                                                         5.033151       1.207157

                          2       1    1s              130.709321       4.251943
                                                        23.808866       4.112294
                                                         6.443608       1.281623

     RI Auxiliary Basis Set             RI_aug-SZV-MOLOPT-ae-SR_N_RI_094_s_p_d_f

       Number of orbital shell sets:                                          24
       Number of orbital shells:                                              24
       Number of primitive Cartesian functions:                               24
       Number of Cartesian basis functions:                                  121
       Number of spherical basis functions:                                   94
       Norm type:                                                              2

       Normalised Cartesian orbitals:

                        Set   Shell   Orbital            Exponent    Coefficient

                          1       1   14dx2              0.302855       0.203503
                          1       1   14dxy              0.302855       0.352477
                          1       1   14dxz              0.302855       0.352477
                          1       1   14dy2              0.302855       0.203503
                          1       1   14dyz              0.302855       0.352477
                          1       1   14dz2              0.302855       0.203503

                          2       1    1s                0.351583       0.325410

                          3       1   15dx2              0.572744       0.620641
                          3       1   15dxy              0.572744       1.074983
                          3       1   15dxz              0.572744       1.074983
                          3       1   15dy2              0.572744       0.620641
                          3       1   15dyz              0.572744       1.074983
                          3       1   15dz2              0.572744       0.620641

                          4       1    8px               0.604446       0.759690
                          4       1    8py               0.604446       0.759690
                          4       1    8pz               0.604446       0.759690

                          5       1    2s                0.644875       0.512881

                          6       1    9px               0.823718       1.118571
                          6       1    9py               0.823718       1.118571
                          6       1    9pz               0.823718       1.118571

                          7       1   23gx4              0.975015       1.038045
                          7       1   23gx3y             0.975015       2.746409
                          7       1   23gx3z             0.975015       2.746409
                          7       1   23gx2y2            0.975015       3.545599
                          7       1   23gx2yz            0.975015       6.141158
                          7       1   23gx2z2            0.975015       3.545599
                          7       1   23gxy3             0.975015       2.746409
                          7       1   23gxy2z            0.975015       6.141158
                          7       1   23gxyz2            0.975015       6.141158
                          7       1   23gxz3             0.975015       2.746409
                          7       1   23gy4              0.975015       1.038045
                          7       1   23gy3z             0.975015       2.746409
                          7       1   23gy2z2            0.975015       3.545599
                          7       1   23gyz3             0.975015       2.746409
                          7       1   23gz4              0.975015       1.038045

                          8       1   20fx3              1.042512       1.616728
                          8       1   20fx2y             1.042512       3.615113
                          8       1   20fx2z             1.042512       3.615113
                          8       1   20fxy2             1.042512       3.615113
                          8       1   20fxyz             1.042512       6.261560
                          8       1   20fxz2             1.042512       3.615113
                          8       1   20fy3              1.042512       1.616728
                          8       1   20fy2z             1.042512       3.615113
                          8       1   20fyz2             1.042512       3.615113
                          8       1   20fz3              1.042512       1.616728

                          9       1   16dx2              1.084348       1.896507
                          9       1   16dxy              1.084348       3.284847
                          9       1   16dxz              1.084348       3.284847
                          9       1   16dy2              1.084348       1.896507
                          9       1   16dyz              1.084348       3.284847
                          9       1   16dz2              1.084348       1.896507

                         10       1    3s                1.789865       1.102872

                         11       1   17dx2              2.049940       5.780383
                         11       1   17dxy              2.049940      10.011917
                         11       1   17dxz              2.049940      10.011917
                         11       1   17dy2              2.049940       5.780383
                         11       1   17dyz              2.049940      10.011917
                         11       1   17dz2              2.049940       5.780383

                         12       1   10px               2.080883       3.562458
                         12       1   10py               2.080883       3.562458
                         12       1   10pz               2.080883       3.562458

                         13       1   21fx3              2.267771       9.290791
                         13       1   21fx2y             2.267771      20.774841
                         13       1   21fx2z             2.267771      20.774841
                         13       1   21fxy2             2.267771      20.774841
                         13       1   21fxyz             2.267771      35.983079
                         13       1   21fxz2             2.267771      20.774841
                         13       1   21fy3              2.267771       9.290791
                         13       1   21fy2z             2.267771      20.774841
                         13       1   21fyz2             2.267771      20.774841
                         13       1   21fz3              2.267771       9.290791

                         14       1   24gx4              2.269901      10.603631
                         14       1   24gx3y             2.269901      28.054571
                         14       1   24gx3z             2.269901      28.054571
                         14       1   24gx2y2            2.269901      36.218295
                         14       1   24gx2yz            2.269901      62.731928
                         14       1   24gx2z2            2.269901      36.218295
                         14       1   24gxy3             2.269901      28.054571
                         14       1   24gxy2z            2.269901      62.731928
                         14       1   24gxyz2            2.269901      62.731928
                         14       1   24gxz3             2.269901      28.054571
                         14       1   24gy4              2.269901      10.603631
                         14       1   24gy3z             2.269901      28.054571
                         14       1   24gy2z2            2.269901      36.218295
                         14       1   24gyz3             2.269901      28.054571
                         14       1   24gz4              2.269901      10.603631

                         15       1   18dx2              3.875832      17.621715
                         15       1   18dxy              3.875832      30.521706
                         15       1   18dxz              3.875832      30.521706
                         15       1   18dy2              3.875832      17.621715
                         15       1   18dyz              3.875832      30.521706
                         15       1   18dz2              3.875832      17.621715

                         16       1   22fx3              4.795051      50.088644
                         16       1   22fx2y             4.795051     112.001612
                         16       1   22fx2z             4.795051     112.001612
                         16       1   22fxy2             4.795051     112.001612
                         16       1   22fxyz             4.795051     193.992483
                         16       1   22fxz2             4.795051     112.001612
                         16       1   22fy3              4.795051      50.088644
                         16       1   22fy2z             4.795051     112.001612
                         16       1   22fyz2             4.795051     112.001612
                         16       1   22fz3              4.795051      50.088644

                         17       1   11px               5.513293      12.042148
                         17       1   11py               5.513293      12.042148
                         17       1   11pz               5.513293      12.042148

                         18       1    4s                6.240947       2.814155

                         19       1   19dx2              7.321398      53.635085
                         19       1   19dxy              7.321398      92.898692
                         19       1   19dxz              7.321398      92.898692
                         19       1   19dy2              7.321398      53.635085
                         19       1   19dyz              7.321398      92.898692
                         19       1   19dz2              7.321398      53.635085

                         20       1   12px              13.137317      35.651142
                         20       1   12py              13.137317      35.651142
                         20       1   12pz              13.137317      35.651142

                         21       1    5s               18.794911       6.433396

                         22       1   13px              31.295130     105.508159
                         22       1   13py              31.295130     105.508159
                         22       1   13pz              31.295130     105.508159

                         23       1    6s               55.276172      14.448194

                         24       1    7s              162.769315      32.478016

       Atomic covalent radius [Angstrom]:                                  0.730

       Atomic van der Waals radius [Angstrom]:                             1.520

     The atoms of this atomic kind are PAW atoms (GAPW):
       Hard Gaussian function radius:                                      1.512
       Rho0 radius:                                                        1.512
       Maximum GTO radius used for PAW projector construction:            24.566

     GAPW Soft Basis Set                               aug-SZV-MOLOPT-ae-SR_soft

       Number of orbital shell sets:                                           2
       Number of orbital shells:                                               6
       Number of primitive Cartesian functions:                                3
       Number of Cartesian basis functions:                                   15
       Number of spherical basis functions:                                   14
       Norm type:                                                              2

       Normalised Cartesian orbitals:

                        Set   Shell   Orbital            Exponent    Coefficient

                          1       1    1s                0.162492       0.000000
                                                         0.380389       0.241686
                                                         1.169596       0.320234

                          1       2    2s                0.162492       0.120425
                                                         0.380389       0.131001
                                                         1.169596      -0.000041

                          1       3    2px               0.162492       0.000000
                                                         0.380389       0.166903
                                                         1.169596       1.053568
                          1       3    2py               0.162492       0.000000
                                                         0.380389       0.166903
                                                         1.169596       1.053568
                          1       3    2pz               0.162492       0.000000
                                                         0.380389       0.166903
                                                         1.169596       1.053568

                          1       4    3px               0.162492       0.001278
                                                         0.380389       0.422682
                                                         1.169596       0.000775
                          1       4    3py               0.162492       0.001278
                                                         0.380389       0.422682
                                                         1.169596       0.000775
                          1       4    3pz               0.162492       0.001278
                                                         0.380389       0.422682
                                                         1.169596       0.000775

                          1       5    3dx2              0.162492      -0.037898
                                                         0.380389       0.380180
                                                         1.169596       0.208664
                          1       5    3dxy              0.162492      -0.065641
                                                         0.380389       0.658491
                                                         1.169596       0.361417
                          1       5    3dxz              0.162492      -0.065641
                                                         0.380389       0.658491
                                                         1.169596       0.361417
                          1       5    3dy2              0.162492      -0.037898
                                                         0.380389       0.380180
                                                         1.169596       0.208664
                          1       5    3dyz              0.162492      -0.065641
                                                         0.380389       0.658491
                                                         1.169596       0.361417
                          1       5    3dz2              0.162492      -0.037898
                                                         0.380389       0.380180
                                                         1.169596       0.208664

                          2       1    1s         

     AE Potential information for                                            ALL

       Description:                                       All-electron potential
                                          Krack, Parrinello, PCCP 2, 2105 (2000)

       Gaussian exponent of the core charge distribution:               8.154466
       Electronic configuration (s p d ...):                           4   4   0

  2. Atomic kind: F                                     Number of atoms:       4

     Orbital Basis Set                                         aug-SZV-MOLOPT-ae

       Number of orbital shell sets:                                           2
       Number of orbital shells:                                               6
       Number of primitive Cartesian functions:                               14
       Number of Cartesian basis functions:                                   15
       Number of spherical basis functions:                                   14
       Norm type:                                                              2

       Normalised Cartesian orbitals:

                        Set   Shell   Orbital            Exponent    Coefficient

                          1       1    1s                0.080000       0.000000
                                                         0.150000       0.000000
                                                         0.315820       0.072273
                                                         0.689002       0.320758
                                                         1.586463       0.252111
                                                         4.123510      -0.069677
                                                        13.267438      -0.232821
                                                        67.032281      -0.221274

                          1       2    2s                0.080000       0.215695
                                                         0.150000      -0.211932
                                                         0.315820      -0.108152
                                                         0.689002       0.433639
                                                         1.586463      -0.257713
                                                         4.123510       0.098829
                                                        13.267438       0.000000
                                                        67.032281       0.000000

                          1       3    2px               0.080000       0.000000
                                                         0.150000       0.000000
                                                         0.315820       0.034324
                                                         0.689002       0.381050
                                                         1.586463       1.060942
                                                         4.123510       1.456516
                                                        13.267438       1.359964
                                                        67.032281       1.027893
                          1       3    2py               0.080000       0.000000
                                                         0.150000       0.000000
                                                         0.315820       0.034324
                                                         0.689002       0.381050
                                                         1.586463       1.060942
                                                         4.123510       1.456516
                                                        13.267438       1.359964
                                                        67.032281       1.027893
                          1       3    2pz               0.080000       0.000000
                                                         0.150000       0.000000
                                                         0.315820       0.034324
                                                         0.689002       0.381050
                                                         1.586463       1.060942
                                                         4.123510       1.456516
                                                        13.267438       1.359964
                                                        67.032281       1.027893

                          1       4    3px               0.080000       0.095170
                                                         0.150000      -0.118369
                                                         0.315820       0.128679
                                                         0.689002      -0.166392
                                                         1.586463      -0.515032
                                                         4.123510       0.009820
                                                        13.267438       0.000000
                                                        67.032281       0.000000
                          1       4    3py               0.080000       0.095170
                                                         0.150000      -0.118369
                                                         0.315820       0.128679
                                                         0.689002      -0.166392
                                                         1.586463      -0.515032
                                                         4.123510       0.009820
                                                        13.267438       0.000000
                                                        67.032281       0.000000
                          1       4    3pz               0.080000       0.095170
                                                         0.150000      -0.118369
                                                         0.315820       0.128679
                                                         0.689002      -0.166392
                                                         1.586463      -0.515032
                                                         4.123510       0.009820
                                                        13.267438       0.000000
                                                        67.032281       0.000000

                          1       5    3dx2              0.080000       0.005746
                                                         0.150000      -0.014463
                                                         0.315820      -0.016939
                                                         0.689002       0.279904
                                                         1.586463       2.240938
                                                         4.123510       4.953143
                                                        13.267438       0.000000
                                                        67.032281       0.000000
                          1       5    3dxy              0.080000       0.009952
                                                         0.150000      -0.025050
                                                         0.315820      -0.029340
                                                         0.689002       0.484808
                                                         1.586463       3.881418
                                                         4.123510       8.579095
                                                        13.267438       0.000000
                                                        67.032281       0.000000
                          1       5    3dxz              0.080000       0.009952
                                                         0.150000      -0.025050
                                                         0.315820      -0.029340
                                                         0.689002       0.484808
                                                         1.586463       3.881418
                                                         4.123510       8.579095
                                                        13.267438       0.000000
                                                        67.032281       0.000000
                          1       5    3dy2              0.080000       0.005746
                                                         0.150000      -0.014463
                                                         0.315820      -0.016939
                                                         0.689002       0.279904
                                                         1.586463       2.240938
                                                         4.123510       4.953143
                                                        13.267438       0.000000
                                                        67.032281       0.000000
                          1       5    3dyz              0.080000       0.009952
                                                         0.150000      -0.025050
                                                         0.315820      -0.029340
                                                         0.689002       0.484808
                                                         1.586463       3.881418
                                                         4.123510       8.579095
                                                        13.267438       0.000000
                                                        67.032281       0.000000
                          1       5    3dz2              0.080000       0.005746
                                                         0.150000      -0.014463
                                                         0.315820      -0.016939
                                                         0.689002       0.279904
                                                         1.586463       2.240938
                                                         4.123510       4.953143
                                                        13.267438       0.000000
                                                        67.032281       0.000000

                          2       1    1s             1728.626574       1.750862
                                                       316.941790       2.642610
                                                        88.668891       3.470861
                                                        30.460157       3.424294
                                                        11.828570       1.893283
                                                         4.871659       0.304597

     RI Auxiliary Basis Set             RI_aug-SZV-MOLOPT-ae_N_RI_119_s_p_d_f_g_

       Number of orbital shell sets:                                          25
       Number of orbital shells:                                              25
       Number of primitive Cartesian functions:                               25
       Number of Cartesian basis functions:                                  179
       Number of spherical basis functions:                                  119
       Norm type:                                                              2

       Normalised Cartesian orbitals:

                        Set   Shell   Orbital            Exponent    Coefficient

                          1       1    1s                0.099935       0.126677

                          2       1    8px               0.125451       0.106422
                          2       1    8py               0.125451       0.106422
                          2       1    8pz               0.125451       0.106422

                          3       1   14dx2              0.161731       0.067889
                          3       1   14dxy              0.161731       0.117587
                          3       1   14dxz              0.161731       0.117587
                          3       1   14dy2              0.161731       0.067889
                          3       1   14dyz              0.161731       0.117587
                          3       1   14dz2              0.161731       0.067889

                          4       1    2s                0.431256       0.379282

                          5       1    9px               0.493595       0.589730
                          5       1    9py               0.493595       0.589730
                          5       1    9pz               0.493595       0.589730

                          6       1   15dx2              0.908166       1.390587
                          6       1   15dxy              0.908166       2.408568
                          6       1   15dxz              0.908166       2.408568
                          6       1   15dy2              0.908166       1.390587
                          6       1   15dyz              0.908166       2.408568
                          6       1   15dz2              0.908166       1.390587

                          7       1   18fx3              1.624538       4.386285
                          7       1   18fx2y             1.624538       9.808030
                          7       1   18fx2z             1.624538       9.808030
                          7       1   18fxy2             1.624538       9.808030
                          7       1   18fxyz             1.624538      16.988007
                          7       1   18fxz2             1.624538       9.808030
                          7       1   18fy3              1.624538       4.386285
                          7       1   18fy2z             1.624538       9.808030
                          7       1   18fyz2             1.624538       9.808030
                          7       1   18fz3              1.624538       4.386285

                          8       1   23hx5              1.846571       5.445446
                          8       1   23hx4y             1.846571      16.336339
                          8       1   23hx4z             1.846571      16.336339
                          8       1   23hx3y2            1.846571      24.954169
                          8       1   23hx3yz            1.846571      43.221889
                          8       1   23hx3z2            1.846571      24.954169
                          8       1   23hx2y3            1.846571      24.954169
                          8       1   23hx2y2z           1.846571      55.799219
                          8       1   23hx2yz2           1.846571      55.799219
                          8       1   23hx2z3            1.846571      24.954169
                          8       1   23hxy4             1.846571      16.336339
                          8       1   23hxy3z            1.846571      43.221889
                          8       1   23hxy2z2           1.846571      55.799219
                          8       1   23hxyz3            1.846571      43.221889
                          8       1   23hxz4             1.846571      16.336339
                          8       1   23hy5              1.846571       5.445446
                          8       1   23hy4z             1.846571      16.336339
                          8       1   23hy3z2            1.846571      24.954169
                          8       1   23hy2z3            1.846571      24.954169
                          8       1   23hyz4             1.846571      16.336339
                          8       1   23hz5              1.846571       5.445446

                          9       1    3s                1.861026       1.135597

                         10       1   10px               1.942082       3.267943
                         10       1   10py               1.942082       3.267943
                         10       1   10pz               1.942082       3.267943

                         11       1   21gx4              2.155814       9.201671
                         11       1   21gx3y             2.155814      24.345334
                         11       1   21gx3z             2.155814      24.345334
                         11       1   21gx2y2            2.155814      31.429691
                         11       1   21gx2yz            2.155814      54.437822
                         11       1   21gx2z2            2.155814      31.429691
                         11       1   21gxy3             2.155814      24.345334
                         11       1   21gxy2z            2.155814      54.437822
                         11       1   21gxyz2            2.155814      54.437822
                         11       1   21gxz3             2.155814      24.345334
                         11       1   21gy4              2.155814       9.201671
                         11       1   21gy3z             2.155814      24.345334
                         11       1   21gy2z2            2.155814      31.429691
                         11       1   21gyz3             2.155814      24.345334
                         11       1   21gz4              2.155814       9.201671

                         12       1   16dx2              2.971501      11.069226
                         12       1   16dxy              2.971501      19.172461
                         12       1   16dxz              2.971501      19.172461
                         12       1   16dy2              2.971501      11.069226
                         12       1   16dyz              2.971501      19.172461
                         12       1   16dz2              2.971501      11.069226

                         13       1   25ix6              3.232712      36.437980
                         13       1   25ix5y             3.232712     120.851106
                         13       1   25ix5z             3.232712     120.851106
                         13       1   25ix4y2            3.232712     209.320257
                         13       1   25ix4yz            3.232712     362.553319
                         13       1   25ix4z2            3.232712     209.320257
                         13       1   25ix3y3            3.232712     247.671068
                         13       1   25ix3y2z           3.232712     553.809343
                         13       1   25ix3yz2           3.232712     553.809343
                         13       1   25ix3z3            3.232712     247.671068
                         13       1   25ix2y4            3.232712     209.320257
                         13       1   25ix2y3z           3.232712     553.809343
                         13       1   25ix2y2z2          3.232712     714.964788
                         13       1   25ix2yz3           3.232712     553.809343
                         13       1   25ix2z4            3.232712     209.320257
                         13       1   25ixy5             3.232712     120.851106
                         13       1   25ixy4z            3.232712     362.553319
                         13       1   25ixy3z2           3.232712     553.809343
                         13       1   25ixy2z3           3.232712     553.809343
                         13       1   25ixyz4            3.232712     362.553319
                         13       1   25ixz5             3.232712     120.851106
                         13       1   25iy6              3.232712      36.437980
                         13       1   25iy5z             3.232712     120.851106
                         13       1   25iy4z2            3.232712     209.320257
                         13       1   25iy3z3            3.232712     247.671068
                         13       1   25iy2z4            3.232712     209.320257
                         13       1   25iyz5             3.232712     120.851106
                         13       1   25iz6              3.232712      36.437980

                         14       1   19fx3              3.844337      30.465116
                         14       1   19fx2y             3.844337      68.122071
                         14       1   19fx2z             3.844337      68.122071
                         14       1   19fxy2             3.844337      68.122071
                         14       1   19fxyz             3.844337     117.990888
                         14       1   19fxz2             3.844337      68.122071
                         14       1   19fy3              3.844337      30.465116
                         14       1   19fy2z             3.844337      68.122071
                         14       1   19fyz2             3.844337      68.122071
                         14       1   19fz3              3.844337      30.465116

                         15       1   24hx5              7.030211     419.750649
                         15       1   24hx4y             7.030211    1259.251948
                         15       1   24hx4z             7.030211    1259.251948
                         15       1   24hx3y2            7.030211    1923.539124
                         15       1   24hx3yz            7.030211    3331.667493
                         15       1   24hx3z2            7.030211    1923.539124
                         15       1   24hx2y3            7.030211    1923.539124
                         15       1   24hx2y2z           7.030211    4301.164238
                         15       1   24hx2yz2           7.030211    4301.164238
                         15       1   24hx2z3            7.030211    1923.539124
                         15       1   24hxy4             7.030211    1259.251948
                         15       1   24hxy3z            7.030211    3331.667493
                         15       1   24hxy2z2           7.030211    4301.164238
                         15       1   24hxyz3            7.030211    3331.667493
                         15       1   24hxz4             7.030211    1259.251948
                         15       1   24hy5              7.030211     419.750649
                         15       1   24hy4z             7.030211    1259.251948
                         15       1   24hy3z2            7.030211    1923.539124
                         15       1   24hy2z3            7.030211    1923.539124
                         15       1   24hyz4             7.030211    1259.251948
                         15       1   24hz5              7.030211     419.750649

                         16       1   11px               7.641253      18.109055
                         16       1   11py               7.641253      18.109055
                         16       1   11pz               7.641253      18.109055

                         17       1    4s                8.030991       3.400063

                         18       1   22gx4              8.684977     424.667683
                         18       1   22gx3y             8.684977    1123.565079
                         18       1   22gx3z             8.684977    1123.565079
                         18       1   22gx2y2            8.684977    1450.516279
                         18       1   22gx2yz            8.684977    2512.367893
                         18       1   22gx2z2            8.684977    1450.516279
                         18       1   22gxy3             8.684977    1123.565079
                         18       1   22gxy2z            8.684977    2512.367893
                         18       1   22gxyz2            8.684977    2512.367893
                         18       1   22gxz3             8.684977    1123.565079
                         18       1   22gy4              8.684977     424.667683
                         18       1   22gy3z             8.684977    1123.565079
                         18       1   22gy2z2            8.684977    1450.516279
                         18       1   22gyz3             8.684977    1123.565079
                         18       1   22gz4              8.684977     424.667683

                         19       1   20fx3             17.817176     960.156277
                         19       1   20fx2y            17.817176    2146.974703
                         19       1   20fx2z            17.817176    2146.974703
                         19       1   20fxy2            17.817176    2146.974703
                         19       1   20fxyz            17.817176    3718.669269
                         19       1   20fxz2            17.817176    2146.974703
                         19       1   20fy3             17.817176     960.156277
                         19       1   20fy2z            17.817176    2146.974703
                         19       1   20fyz2            17.817176    2146.974703
                         19       1   20fz3             17.817176     960.156277

                         20       1   17dx2             24.920142     457.480790
                         20       1   17dxy             24.920142     792.379971
                         20       1   17dxz             24.920142     792.379971
                         20       1   17dy2             24.920142     457.480790
                         20       1   17dyz             24.920142     792.379971
                         20       1   17dz2             24.920142     457.480790

                         21       1   12px              30.065030     100.349945
                         21       1   12py              30.065030     100.349945
                         21       1   12pz              30.065030     100.349945

                         22       1    5s               34.656596      10.180041

                         23       1   13px             118.292911     556.081553
                         23       1   13py             118.292911     556.081553
                         23       1   13pz             118.292911     556.081553

                         24       1    6s              149.555606      30.479800

                         25       1    7s              645.385917      91.258790

       Atomic covalent radius [Angstrom]:                                  0.720

       Atomic van der Waals radius [Angstrom]:                             1.470

     The atoms of this atomic kind are PAW atoms (GAPW):
       Hard Gaussian function radius:                                      1.512
       Rho0 radius:                                                        1.512
       Maximum GTO radius used for PAW projector construction:            24.566

     GAPW Soft Basis Set                                  aug-SZV-MOLOPT-ae_soft

       Number of orbital shell sets:                                           2
       Number of orbital shells:                                               6
       Number of primitive Cartesian functions:                                6
       Number of Cartesian basis functions:                                   15
       Number of spherical basis functions:                                   14
       Norm type:                                                              2

       Normalised Cartesian orbitals:

                        Set   Shell   Orbital            Exponent    Coefficient

                          1       1    1s                0.080000       0.000000
                                                         0.150000       0.000000
                                                         0.315820       0.072273
                                                         0.689002       0.320758
                                                         1.586463       0.252111
                                                         4.123510       0.000000

                          1       2    2s                0.080000       0.215695
                                                         0.150000      -0.211932
                                                         0.315820      -0.108152
                                                         0.689002       0.433639
                                                         1.586463      -0.257713
                                                         4.123510       0.000000

                          1       3    2px               0.080000       0.000000
                                                         0.150000       0.000000
                                                         0.315820       0.034324
                                                         0.689002       0.381050
                                                         1.586463       1.060942
                                                         4.123510       1.456516
                          1       3    2py               0.080000       0.000000
                                                         0.150000       0.000000
                                                         0.315820       0.034324
                                                         0.689002       0.381050
                                                         1.586463       1.060942
                                                         4.123510       1.456516
                          1       3    2pz               0.080000       0.000000
                                                         0.150000       0.000000
                                                         0.315820       0.034324
                                                         0.689002       0.381050
                                                         1.586463       1.060942
                                                         4.123510       1.456516

                          1       4    3px               0.080000       0.095170
                                                         0.150000      -0.118369
                                                         0.315820       0.128679
                                                         0.689002      -0.166392
                                                         1.586463      -0.515032
                                                         4.123510       0.009820
                          1       4    3py               0.080000       0.095170
                                                         0.150000      -0.118369
                                                         0.315820       0.128679
                                                         0.689002      -0.166392
                                                         1.586463      -0.515032
                                                         4.123510       0.009820
                          1       4    3pz               0.080000       0.095170
                                                         0.150000      -0.118369
                                                         0.315820       0.128679
                                                         0.689002      -0.166392
                                                         1.586463      -0.515032
                                                         4.123510       0.009820

                          1       5    3dx2              0.080000       0.005746
                                                         0.150000      -0.014463
                                                         0.315820      -0.016939
                                                         0.689002       0.279904
                                                         1.586463       2.240938
                                                         4.123510       4.953143
                          1       5    3dxy              0.080000       0.009952
                                                         0.150000      -0.025050
                                                         0.315820      -0.029340
                                                         0.689002       0.484808
                                                         1.586463       3.881418
                                                         4.123510       8.579095
                          1       5    3dxz              0.080000       0.009952
                                                         0.150000      -0.025050
                                                         0.315820      -0.029340
                                                         0.689002       0.484808
                                                         1.586463       3.881418
                                                         4.123510       8.579095
                          1       5    3dy2              0.080000       0.005746
                                                         0.150000      -0.014463
                                                         0.315820      -0.016939
                                                         0.689002       0.279904
                                                         1.586463       2.240938
                                                         4.123510       4.953143
                          1       5    3dyz              0.080000       0.009952
                                                         0.150000      -0.025050
                                                         0.315820      -0.029340
                                                         0.689002       0.484808
                                                         1.586463       3.881418
                                                         4.123510       8.579095
                          1       5    3dz2              0.080000       0.005746
                                                         0.150000      -0.014463
                                                         0.315820      -0.016939
                                                         0.689002       0.279904
                                                         1.586463       2.240938
                                                         4.123510       4.953143

                          2       1    1s         

     AE Potential information for                                            ALL

       Description:                                       All-electron potential
                                          Krack, Parrinello, PCCP 2, 2105 (2000)

       Gaussian exponent of the core charge distribution:              10.470541
       Electronic configuration (s p d ...):                           4   5   0

  3. Atomic kind: C                                     Number of atoms:       8

     Orbital Basis Set                                      aug-SZV-MOLOPT-ae-SR

       Number of orbital shell sets:                                           2
       Number of orbital shells:                                               6
       Number of primitive Cartesian functions:                                7
       Number of Cartesian basis functions:                                   15
       Number of spherical basis functions:                                   14
       Norm type:                                                              2

       Normalised Cartesian orbitals:

                        Set   Shell   Orbital            Exponent    Coefficient

                          1       1    2s                0.114559       0.000000
                                                         0.222290       0.161536
                                                         0.683483       0.214036
                                                         2.941249      -0.160017

                          1       2    3s                0.114559       0.078076
                                                         0.222290       0.130402
                                                         0.683483      -0.084834
                                                         2.941249       0.041379

                          1       3    3px               0.114559       0.000000
                                                         0.222290       0.085276
                                                         0.683483       0.538304
                                                         2.941249       0.856045
                          1       3    3py               0.114559       0.000000
                                                         0.222290       0.085276
                                                         0.683483       0.538304
                                                         2.941249       0.856045
                          1       3    3pz               0.114559       0.000000
                                                         0.222290       0.085276
                                                         0.683483       0.538304
                                                         2.941249       0.856045

                          1       4    4px               0.114559       0.224492
                                                         0.222290      -0.546182
                                                         0.683483       0.918493
                                                         2.941249      -0.348342
                          1       4    4py               0.114559       0.224492
                                                         0.222290      -0.546182
                                                         0.683483       0.918493
                                                         2.941249      -0.348342
                          1       4    4pz               0.114559       0.224492
                                                         0.222290      -0.546182
                                                         0.683483       0.918493
                                                         2.941249      -0.348342

                          1       5    4dx2              0.114559       0.004023
                                                         0.222290       0.096934
                                                         0.683483       0.116751
                                                         2.941249       0.357653
                          1       5    4dxy              0.114559       0.006968
                                                         0.222290       0.167895
                                                         0.683483       0.202218
                                                         2.941249       0.619473
                          1       5    4dxz              0.114559       0.006968
                                                         0.222290       0.167895
                                                         0.683483       0.202218
                                                         2.941249       0.619473
                          1       5    4dy2              0.114559       0.004023
                                                         0.222290       0.096934
                                                         0.683483       0.116751
                                                         2.941249       0.357653
                          1       5    4dyz              0.114559       0.006968
                                                         0.222290       0.167895
                                                         0.683483       0.202218
                                                         2.941249       0.619473
                          1       5    4dz2              0.114559       0.004023
                                                         0.222290       0.096934
                                                         0.683483       0.116751
                                                         2.941249       0.357653

                          2       1    1s               71.616837       2.707814
                                                        13.045096       2.618880
                                                         3.530512       0.816191

     RI Auxiliary Basis Set             RI_aug-SZV-MOLOPT-ae-SR_N_RI_075_s_p_d_f

       Number of orbital shell sets:                                          19
       Number of orbital shells:                                              19
       Number of primitive Cartesian functions:                               19
       Number of Cartesian basis functions:                                   99
       Number of spherical basis functions:                                   75
       Norm type:                                                              2

       Normalised Cartesian orbitals:

                        Set   Shell   Orbital            Exponent    Coefficient

                          1       1    7px               0.280788       0.291348
                          1       1    7py               0.280788       0.291348
                          1       1    7pz               0.280788       0.291348

                          2       1    1s                0.306994       0.293939

                          3       1   12dx2              0.425885       0.369548
                          3       1   12dxy              0.425885       0.640076
                          3       1   12dxz              0.425885       0.640076
                          3       1   12dy2              0.425885       0.369548
                          3       1   12dyz              0.425885       0.640076
                          3       1   12dz2              0.425885       0.369548

                          4       1   15fx3              0.441457       0.233859
                          4       1   15fx2y             0.441457       0.522924
                          4       1   15fx2z             0.441457       0.522924
                          4       1   15fxy2             0.441457       0.522924
                          4       1   15fxyz             0.441457       0.905731
                          4       1   15fxz2             0.441457       0.522924
                          4       1   15fy3              0.441457       0.233859
                          4       1   15fy2z             0.441457       0.522924
                          4       1   15fyz2             0.441457       0.522924
                          4       1   15fz3              0.441457       0.233859

                          5       1    8px               0.477699       0.566087
                          5       1    8py               0.477699       0.566087
                          5       1    8pz               0.477699       0.566087

                          6       1   16fx3              0.901688       1.166355
                          6       1   16fx2y             0.901688       2.608049
                          6       1   16fx2z             0.901688       2.608049
                          6       1   16fxy2             0.901688       2.608049
                          6       1   16fxyz             0.901688       4.517273
                          6       1   16fxz2             0.901688       2.608049
                          6       1   16fy3              0.901688       1.166355
                          6       1   16fy2z             0.901688       2.608049
                          6       1   16fyz2             0.901688       2.608049
                          6       1   16fz3              0.901688       1.166355

                          7       1   18gx4              0.934410       0.923449
                          7       1   18gx3y             0.934410       2.443217
[...]
 cp_fm_redistribute_end              59  7.9    0.336    0.632    0.340    0.634
 build_core_hamiltonian_matrix        1  4.0    0.000    0.001    0.615    0.615
 overlap_condnum                      1  5.0    0.000    0.002    0.612    0.613
 cp2k_distribution_to_z_slices       54  9.0    0.202    0.226    0.590    0.609
 pw_gather_p                        538 11.8    0.554    0.594    0.554    0.594
 pw_copy                            805 10.6    0.560    0.585    0.560    0.585
 fft_wrap_pw1pw2_90                 108 10.5    0.017    0.018    0.560    0.584
 gaVxcgb_GC                         106  9.0    0.041    0.581    0.041    0.581
 arnoldi_conjugate_gradient           5  6.0    0.007    0.009    0.580    0.580
 calc_screening_functions             1 10.0    0.223    0.228    0.552    0.564
 powell_optimize                 382579 11.0    0.551    0.562    0.551    0.562
 mp_isend_dv                      10120 12.0    0.206    0.472    0.206    0.472
 calculate_rho_atom                 162  9.0    0.150    0.438    0.150    0.438
 rs_grid_zero                       273 11.1    0.398    0.418    0.398    0.418
 rs_gather_matrices                  54 10.0    0.002    0.004    0.352    0.411
 update_ks_atom                      54  8.0    0.018    0.030    0.379    0.396
 cp_fm_to_fm_submat_general         112 10.1    0.269    0.395    0.269    0.395
 pw_poisson_set                      55  8.9    0.001    0.001    0.370    0.392
 pw_poisson_rebuild                  54  9.0    0.000    0.000    0.369    0.387
 ps_wavelet_create                    1 10.0    0.000    0.000    0.369    0.387
 RS_z_slice_distribution              1 11.0    0.250    0.279    0.369    0.387
 calculate_dm_sparse                 53  6.0    0.000    0.000    0.330    0.386
 cp_dbcsr_plus_fm_fm_t               53  7.0    0.000    0.001    0.330    0.386
 pw_copy_to_array                   538 11.8    0.316    0.384    0.316    0.384
 mp_bcast_dm                       1728  9.0    0.361    0.373    0.361    0.373
 calc_pair_dist_radii                 1 10.0    0.128    0.152    0.349    0.373
 calculate_rho_atom_coeff            54  6.0    0.020    0.024    0.354    0.354
 dbcsr_sym_matrix_vector_mult      2228  7.0    0.016    0.017    0.320    0.341
 grid_integrate_task_list            54 10.0    0.044    0.338    0.044    0.338
 pw_copy_from_array                 588 12.1    0.276    0.330    0.276    0.330
 dbt_total                            8  8.0    0.000    0.000    0.325    0.325
 dbcsr_complete_redistribute        254  8.6    0.012    0.013    0.303    0.307
 dbt_contract                         4  9.0    0.000    0.000    0.299    0.302
 dbcsr_multiply_generic             218  8.0    0.004    0.004    0.236    0.293
 transfer_rs2pw_10                   54  9.0    0.055    0.058    0.237    0.289
 pw_axpy                            589  9.2    0.267    0.280    0.267    0.280
 copy_dbcsr_to_fm                   144  7.2    0.002    0.002    0.251    0.280
 pw_integral_ab_c1d_c1d_gs           54  9.0    0.237    0.242    0.259    0.276
 init_scf_run                         1  3.0    0.000    0.000    0.275    0.276
 scf_env_initial_rho_setup            1  4.0    0.000    0.000    0.263    0.263
 mp_isend_dm3                      1962 11.4    0.048    0.262    0.048    0.262
 create_A                             1  8.0    0.003    0.003    0.251    0.253
 create_B                             1  8.0    0.000    0.000    0.223    0.231
 dbt_tas_multiply                     8 11.5    0.000    0.000    0.224    0.224
 dbt_tas_total                        8 12.5    0.001    0.004    0.224    0.224
 cp_fm_syrk                           3  7.0    0.220    0.223    0.220    0.223
 mp2_main_alloc_hfx                   1  4.0    0.112    0.217    0.112    0.217
 fm_general_add_bse                   5 10.2    0.000    0.000    0.207    0.216
 cp_fm_uplo_to_full                 163  8.2    0.155    0.203    0.155    0.203
 mp_sum_i                            19  9.5    0.107    0.198    0.107    0.198
 dbcsr_rep_row_to_rep_col_vec      2228  8.0    0.006    0.007    0.127    0.198
 restraint_control                    1  2.0    0.000    0.000    0.105    0.196
 dbcsr_col_vec_to_rep_row          2228  8.0    0.007    0.008    0.103    0.193
 qs_init_subsys                       1  2.0    0.001    0.006    0.189    0.190
 mp_isendrecv_dv                  17064 12.0    0.032    0.188    0.032    0.188
 qs_env_setup                         1  3.0    0.000    0.000    0.185    0.187
 qs_env_rebuild_pw_env                2  3.5    0.000    0.000    0.185    0.186
 pw_env_rebuild                       1  5.0    0.000    0.000    0.185    0.186
 mp_maxloc_dv                      1515  1.0    0.175    0.183    0.175    0.183
 fft_wrap_pw1pw2_30                 108 10.5    0.003    0.003    0.174    0.178
 copy_fm_to_dbcsr                   110  8.1    0.000    0.000    0.175    0.178
 multiply_cannon                    218  9.0    0.008    0.009    0.119    0.176
 pw_grid_setup                        4  6.0    0.000    0.001    0.172    0.174
 pw_grid_setup_internal               4  7.0    0.002    0.003    0.172    0.174
 self_consistency_check              53  5.0    0.000    0.000    0.111    0.170
 cp_sm_mix                           53  6.0    0.000    0.000    0.111    0.170
 mp_max_d                            55  6.9    0.111    0.170    0.111    0.170
 mp_irecv_dv                      10003 12.0    0.009    0.163    0.009    0.163
 multiply_cannon_loop               218 10.0    0.004    0.004    0.099    0.156
 pw_zero                            320 10.3    0.143    0.149    0.143    0.149
 dbcsr_desymmetrize_deep            146  8.2    0.003    0.004    0.120    0.149
 mp_alltoall_i11v                   908  9.5    0.146    0.146    0.146    0.146
 dbt_tas_dbm                          8 13.5    0.000    0.000    0.143    0.144
 create_integ_mat                     4  6.0    0.002    0.002    0.131    0.134
 dbt_tas_mm_1N                        8 14.5    0.000    0.000    0.118    0.133
 dbm_multiply                         8 15.5    0.118    0.133    0.118    0.133
 mp_sum_l                          1234  6.7    0.117    0.130    0.117    0.130
 array2fm                             4  7.0    0.000    0.000    0.123    0.127
 postprocess_bse                      1  9.0    0.000    0.000    0.123    0.126
 multiply_cannon_metrocomm3        1320 11.1    0.002    0.002    0.050    0.118
 dbcsr_add_d                       3383  7.0    0.002    0.002    0.020    0.117
 dbcsr_add_anytype                 3383  8.0    0.002    0.013    0.018    0.116
 pw_grid_sort                         4  8.0    0.082    0.085    0.111    0.115
 mp_max_i                           576  2.7    0.090    0.112    0.090    0.112
 create_qs_kind_set                   1  2.0    0.000    0.000    0.110    0.111
 read_qs_kind                         4  3.0    0.044    0.058    0.110    0.111
 get_2c_integrals                     1  6.0    0.000    0.000    0.091    0.110
 cp_fm_redistribute_start            59  7.9    0.067    0.070    0.091    0.102
 integrate_four_center_load          54 10.0    0.000    0.000    0.080    0.095
 hfx_load_balance                     1 11.0    0.000    0.000    0.079    0.095
 Q_trace_and_add_unit_matrix        100  8.0    0.001    0.001    0.044    0.088
 Vh_1c_gg_integrals                  54  8.0    0.007    0.067    0.076    0.087
 fft_wrap_pw1pw2_10                 108 10.5    0.001    0.001    0.084    0.086
 dbt_copy                            12 10.0    0.000    0.000    0.075    0.083
 abc_contract                      5577  9.0    0.036    0.082    0.036    0.082
 mp_irecv_dm3                      1962 11.4    0.007    0.079    0.007    0.079
 make_m2s                           436  9.0    0.003    0.003    0.071    0.075
 mp_bcast_dv                       2285  9.0    0.051    0.074    0.051    0.074
 dbcsr_finalize                    4970 10.5    0.005    0.020    0.025    0.073
 fm_general_add_bse_1_setup           5 11.2    0.066    0.072    0.066    0.072
 mult_B_with_W                        1  8.0    0.000    0.000    0.069    0.070
 parser_read_line                 19251  4.0    0.003    0.003    0.066    0.068
 dbt_reshape                          8 11.5    0.008    0.011    0.057    0.066
 hybrid_alltoall_any                582 11.3    0.008    0.009    0.063    0.066
 parser_read_line_low                32  5.0    0.001    0.018    0.063    0.065
 mp_bcast_av                        758  1.0    0.004    0.010    0.026    0.064
 broadcast_input_information         32  6.0    0.005    0.006    0.062    0.064
 mp_alltoall_i22                    400  9.4    0.036    0.064    0.036    0.064
 cholesky_decomp                      1  7.0    0.000    0.000    0.033    0.063
 scale_and_distribute               108 10.0    0.047    0.063    0.047    0.063
 get_oscillator_strengths             1 10.0    0.000    0.000    0.060    0.061
 dbt_tas_estimate_result_nze          4 12.0    0.001    0.004    0.059    0.059
 qs_env_update_s_mstruct              1  4.0    0.000    0.001    0.058    0.059
 multiply_cannon_metrocomm4        1102 11.2    0.002    0.002    0.005    0.057
 array2fm_info                        4  8.0    0.052    0.054    0.053    0.055
 hfx_load_balance_redist              1 12.0    0.003    0.003    0.054    0.055
 multiply_cannon_metrocomm1        1320 11.1    0.000    0.000    0.014    0.055
 mp_bcast_i                         639  2.9    0.019    0.055    0.019    0.055
 calculate_rho_core                   1  5.0    0.003    0.004    0.054    0.055
 make_images                        436 10.0    0.008    0.008    0.049    0.053
 dbt_communicate_buffer               8 12.5    0.001    0.001    0.045    0.051
 mp_bcast_b_src                     113  7.1    0.014    0.051    0.014    0.051
 rs_scatter_matrices                 54  7.0    0.001    0.001    0.050    0.051
 calculate_rho0_atom                216  9.0    0.050    0.051    0.050    0.051
 mp_waitall_2                        48 15.8    0.040    0.051    0.040    0.051
 scf_post_calculation_gpw             1  3.0    0.000    0.000    0.050    0.050
 write_available_results              1  4.0    0.000    0.000    0.050    0.050
 write_mo_free_results                1  5.0    0.004    0.005    0.050    0.050
 compute_2c_integrals                 1  7.0    0.000    0.001    0.036    0.049
 integrate_four_center_getP          54 10.0    0.005    0.005    0.045    0.048
 dbt_remap                            8 10.0    0.001    0.001    0.048    0.048
 mp_bcast_i_src                     128  7.0    0.039    0.048    0.039    0.048
 integrate_four_center_dist_KS       54 10.0    0.004    0.005    0.044    0.047
 fm_general_add_bse_5_comm_buff       5 11.2    0.000    0.002    0.039    0.046
 communicate_buffer                   5 12.2    0.000    0.000    0.039    0.046
 fm_general_add_bse_4_buf_from_       1 10.0    0.039    0.045    0.039    0.045
 pw_scale                           213  9.5    0.030    0.045    0.030    0.045
 cp_fm_symm                          54  7.0    0.040    0.043    0.040    0.043
 fm_general_add_bse_4_buf_from_       1 10.0    0.039    0.043    0.039    0.043
 dbcsr_iterator_start             28932  8.9    0.022    0.032    0.026    0.043
 get_multipoles_mo                    1 10.0    0.000    0.001    0.037    0.040
 array2fm_buffer_send                 4  8.0    0.037    0.039    0.037    0.039
 write_mo_set_to_restart             53  5.0    0.001    0.033    0.034    0.038
 mp_comm_split_direct                48 14.5    0.025    0.037    0.025    0.037
 mp_rank_compare                   1126 12.9    0.033    0.036    0.033    0.036
 hfx_load_balance_range               1 12.0    0.000    0.000    0.020    0.036
 dbt_tas_replicate                    8 13.5    0.010    0.012    0.030    0.034
 write_mo_set_low                     3  6.0    0.000    0.000    0.033    0.034
 cp_fm_write_unformatted              3  7.0    0.033    0.034    0.033    0.034
 dbcsr_merge_all                   4162 11.2    0.008    0.024    0.014    0.033
 sort_shells                          4  9.0    0.029    0.031    0.029    0.031
 dbcsr_copy                        9767  7.6    0.017    0.018    0.028    0.029
 mp_isendrecv_lv                    158 13.0    0.003    0.029    0.003    0.029
 vxc_of_r_new                       212  9.0    0.000    0.005    0.003    0.029
 mixing_init                          1  5.0    0.026    0.028    0.028    0.028
 mp2_main_free_hfx                    1  4.0    0.014    0.028    0.014    0.028
 dbt_distribution_new_expert         76 10.1    0.001    0.001    0.026    0.027
 dbcsr_work_create                 4956 10.5    0.005    0.018    0.007    0.027
 array2fm_fill                        4  8.0    0.007    0.008    0.018    0.026
 mp_sum_iv                          397  9.8    0.022    0.026    0.022    0.026
 print_transition_amplitudes          1 10.0    0.000    0.000    0.026    0.026
 print_transition_amplitudes_co      50 11.0    0.000    0.000    0.026    0.026
 filter_eigvec_contrib               50 12.0    0.003    0.003    0.026    0.026
 mp_sum_im                         4074 12.9    0.018    0.025    0.018    0.025
 ao_to_mo_and_store_B_mult_gw_1      20  7.0    0.000    0.000    0.021    0.025
 dbt_nd_mp_comm                       8 11.0    0.000    0.000    0.010    0.025
 hirshfeld_integration                1  6.0    0.001    0.008    0.024    0.024
 dbt_split_blocks_generic            20  8.8    0.007    0.008    0.024    0.024
 multiply_cannon_multrec           1320 11.1    0.019    0.023    0.020    0.024
 make_images_sizes                  436 11.0    0.000    0.000    0.017    0.022
 mp_alltoall_i44                    436 12.0    0.017    0.022    0.017    0.022
 dbt_tas_distribution_new            92 11.7    0.011    0.012    0.021    0.022
 dbcsr_iterator_stop              28932  8.9    0.013    0.018    0.016    0.022
 mp_bcast_am_src                     32  7.0    0.016    0.020    0.017    0.021
 cp_fm_create                       293  7.8    0.016    0.020    0.016    0.020
 cp_dbcsr_sm_fm_multiply              3 11.0    0.000    0.000    0.020    0.020
 calculate_hirshfeld_normalizat       1  6.0    0.001    0.008    0.019    0.020
 pw_grid_remap                        4  8.0    0.003    0.003    0.015    0.019
 mp_wait                            100  9.0    0.011    0.019    0.011    0.019
 dbcsr_create_new                 12691  9.1    0.013    0.014    0.018    0.019
 dbm_reserve_blocks                  64 13.9    0.016    0.019    0.016    0.019
 ao_to_mo_and_store_B_mult_bse_      20  7.0    0.000    0.000    0.017    0.019
 invert_mat                           1  7.0    0.000    0.000    0.016    0.019
 dbcsr_work_destroy_all            4956 11.4    0.004    0.013    0.005    0.018
 pw_grid_assign                       4  8.0    0.013    0.018    0.018    0.018
 cp_fm_triangular_invert              1  8.0    0.015    0.018    0.015    0.018
 dbt_tas_communicate_buffer          16 16.0    0.001    0.001    0.012    0.018
 array2fm_isendrecv                   4  8.0    0.001    0.001    0.013    0.018
 ao_to_mo_and_store_B_mult_1         20  7.0    0.000    0.000    0.015    0.017
 offload_free_buffer                 62  8.2    0.011    0.017    0.011    0.017
 mp_sum_im3                           4  9.0    0.012    0.017    0.012    0.017
 xc_pw_smooth                        53 10.0    0.000    0.000    0.016    0.017
 dbcsr_dot                          107  8.0    0.001    0.001    0.015    0.016
 make_images_data                   436 11.0    0.002    0.003    0.013    0.016
 truncate_BSE_matrices                1  8.0    0.000    0.000    0.015    0.016
 mp_sum_lv                           65  2.5    0.012    0.016    0.012    0.016
 dbt_tas_reserve_blocks_index        56 12.8    0.000    0.000    0.012    0.016
 ao_to_mo_and_store_B_mult_bse_      20  7.0    0.000    0.000    0.013    0.015
 dbt_reserve_blocks_index            36 10.8    0.000    0.000    0.011    0.015
 dbt_split_copyback                   4 10.0    0.007    0.009    0.011    0.014
 mp_cart_sub                        292  9.2    0.014    0.014    0.014    0.014
 dbt_tas_create_split                44 13.2    0.000    0.000    0.014    0.014
 dbt_tas_create_split_rows_or_c      44 14.2    0.000    0.000    0.014    0.014
 create_fast_col_vec_access        4456  8.0    0.009    0.009    0.013    0.014
 dbcsr_crop_matrix                  318 10.0    0.001    0.001    0.013    0.014
 dbt_tas_replicate_communicate_       8 14.5    0.000    0.000    0.009    0.014
 create_fast_row_vec_access        4456  8.0    0.008    0.009    0.013    0.014
 dbt_reserve_blocks_index_array      28 10.6    0.000    0.000    0.010    0.013
 mp_alltoall_i                       37 14.0    0.010    0.013    0.010    0.013
 reshape_mm_small                     8 13.5    0.001    0.001    0.013    0.013
 dbcsr_data_new                   48126 10.8    0.007    0.013    0.007    0.013
 ao_to_mo_and_store_B_E_Ex_gw_1      20  7.0    0.002    0.003    0.011    0.013
 dbt_create_new                      40  9.5    0.000    0.000    0.012    0.012
 mp_comm_split                       57  8.9    0.010    0.012    0.011    0.012
 mp_sum_b                           108  8.9    0.004    0.012    0.004    0.012
 dbcsr_data_release               81667 10.4    0.008    0.012    0.008    0.012
 compute_2c_integrals_loop_lm         1  8.0    0.000    0.002    0.007    0.012
 mp2_eri_2c_integrate                 1  9.0    0.001    0.003    0.007    0.012
 evaluate_core_matrix_traces         53  6.0    0.000    0.000    0.011    0.012
 mp_isend_im2                       557 13.2    0.005    0.012    0.005    0.012
 calculate_ptrace_kp                106  7.0    0.000    0.000    0.011    0.012
 integrate_set_2c                  4158 10.0    0.004    0.009    0.006    0.011
 dbcsr_sym_matrix_vector_mult_l    2228  8.0    0.005    0.006    0.010    0.011
 dbcsr_scale_anytype               3384  9.0    0.003    0.004    0.009    0.011
 dbcsr_iterator_seek              28932  9.9    0.004    0.011    0.004    0.011
 dbcsr_copy_submatrix               318 11.0    0.001    0.002    0.010    0.011
 topology_control                     1  2.0    0.000    0.001    0.001    0.011
 fm_general_add_bse_6_buffer_to       1 10.0    0.009    0.010    0.009    0.010
 hfx_create                           1  2.0    0.009    0.010    0.009    0.010
 fm_general_add_bse_3_alloc_buf       5 11.2    0.006    0.009    0.006    0.009
 calc_fm_mat_S_rpa                  100  9.0    0.006    0.009    0.006    0.009
 cp_fm_set_all                      140  9.9    0.007    0.009    0.007    0.009
 allocate_matrices_gw                 1  7.0    0.000    0.000    0.004    0.009
 fm_general_add_bse_2_comm_entr       5 11.2    0.000    0.000    0.006    0.009
 mp_cart_rank                     29040 11.1    0.008    0.009    0.008    0.009
 pw_grid_distribute                   4  8.0    0.004    0.004    0.007    0.009
 -------------------------------------------------------------------------------

 The number of warnings for this run is : 1
 
 -------------------------------------------------------------------------------
  **** **** ******  **  PROGRAM ENDED AT                 2025-06-03 18:54:55.138
 ***** ** ***  *** **   PROGRAM RAN ON                     n2cn0171.ab2021.local
 **    ****   ******    PROGRAM RAN BY                                  metdyn02
 ***** **    ** ** **   PROGRAM PROCESS ID                               3798484
  **** **  *******  **  PROGRAM STOPPED IN /scratch/hpc-prf-metdyn/metdyn02_Remi
                                           /10_MOL/05_MOL/aUKBqsEOTmq69kFe5R_nOg
                                           /5k_set_final_qzvp/BOLNAR/SZVSR/GW+BS
                                           E/RILIM
