 DBCSR| CPU Multiplication driver                                           XSMM (U)
 DBCSR| Multrec recursion limit                                              512 (U)
 DBCSR| Multiplication stack size                                           1000 (D)
 DBCSR| Maximum elements for images                                    UNLIMITED (U)
 DBCSR| Multiplicative factor virtual images                                   1 (U)
 DBCSR| Use multiplication densification                                       T (D)
 DBCSR| Multiplication size stacks                                             3 (U)
 DBCSR| Use memory pool for CPU allocation                                     F (U)
 DBCSR| Number of 3D layers                                               SINGLE (U)
 DBCSR| Use MPI memory allocation                                              F (U)
 DBCSR| Use RMA algorithm                                                      F (U)
 DBCSR| Use Communication thread                                               T (U)
 DBCSR| Communication thread load                                             60 (D)
 DBCSR| MPI: My process id                                                     0
 DBCSR| MPI: Number of processes                                              80
 DBCSR| OMP: Current number of threads                                         8
 DBCSR| OMP: Max number of threads                                             8
 DBCSR| Split modifier for TAS multiplication algorithm                  1.0E+00 (U)


  **** **** ******  **  PROGRAM STARTED AT               2025-06-03 22:59:36.095
 ***** ** ***  *** **   PROGRAM STARTED ON                              n2cn0505
 **    ****   ******    PROGRAM STARTED BY                              metdyn02
 ***** **    ** ** **   PROGRAM PROCESS ID                               1872854
  **** **  *******  **  PROGRAM STARTED IN /scratch/hpc-prf-metdyn/metdyn02_Remi
                                           /10_MOL/05_MOL/aUKBqsEOTmq69kFe5R_nOg
                                           /5k_set_final_qzvp/NUNKUC/SZVSR/GW+BS
                                           E/RILIM

 CP2K| version string:                 CP2K version 2025.1 (Development Version)
 CP2K| source code revision number:                                  git:32ddf85
 CP2K| cp2kflags: omp libint fftw3 libxc libgrpp elpa parallel scalapack mpi_f08
 CP2K|             cosma xsmm plumed2 spglib libvori libbqb libvdwxc hdf5
 CP2K| is freely available from                            https://www.cp2k.org/
 CP2K| Program compiled at                         Mon May 19 11:32:37 CEST 2025
 CP2K| Program compiled on                                              n2login1
 CP2K| Program compiled for                                                local
 CP2K| Data directory path    /opt/software/pc2/EB-SW/software/CP2K/2024.1-foss-
 CP2K| Input file name                                                    GW.inp

 GLOBAL| Force Environment number                                              1
 GLOBAL| Basis set file name            /scratch/hpc-prf-metdyn/metdyn02_Remi/BA
 GLOBAL| Potential file name            /pc2/groups/hpc-prf-metdyn/metdyn02_Remi
 GLOBAL| MM Potential file name                                     MM_POTENTIAL
 GLOBAL| Coordinate file name                                      __STD_INPUT__
 GLOBAL| Method name                                                        CP2K
 GLOBAL| Project name                                                       MoS2
 GLOBAL| Run type                                                         ENERGY
 GLOBAL| FFT library                                                       FFTW3
 GLOBAL| Diagonalization library                                            ELPA
 GLOBAL| Cholesky decomposition library                                ScaLAPACK
 GLOBAL| DGEMM library                                                      BLAS
 GLOBAL| Minimum number of eigenvectors for ELPA usage                        16
 GLOBAL| Orthonormality check for eigenvectors                          DISABLED
 GLOBAL| Matrix multiplication library                                     COSMA
 GLOBAL| All-to-all communication in single precision                          F
 GLOBAL| FFTs using library dependent lengths                                  F
 GLOBAL| Grid backend                                                       AUTO
 GLOBAL| Global print level                                               MEDIUM
 GLOBAL| MPI I/O enabled                                                       T
 GLOBAL| Total number of message passing processes                            80
 GLOBAL| Number of threads for this process                                    8
 GLOBAL| This output is from process                                           0
 GLOBAL| OpenMP stack size per thread (OMP_STACKSIZE)                    default
 GLOBAL| CPU model name                          AMD EPYC 7763 64-Core Processor
 GLOBAL| CPUID                                                              1002

 MEMORY| system memory details [Kb]
 MEMORY|                        rank 0           min           max       average
 MEMORY| MemTotal            263897616     263897536     263900028     263897715
 MEMORY| MemFree             248535956     245155908     251723252     248579379
 MEMORY| Buffers                144592         10996        144592         61837
 MEMORY| Cached               10014568       7404480      13167464      10345945
 MEMORY| Slab                  1881104       1385164       2364384       1690291
 MEMORY| SReclaimable           507760        206080        610228        357785
 MEMORY| MemLikelyFree       259202876     258920144     259605196     259344947


 *** Fundamental physical constants (SI units) ***

 *** Literature: B. J. Mohr and B. N. Taylor,
 ***             CODATA recommended values of the fundamental physical
 ***             constants: 2006, Web Version 5.1
 ***             http://physics.nist.gov/constants

 Speed of light in vacuum [m/s]                             2.99792458000000E+08
 Magnetic constant or permeability of vacuum [N/A**2]       1.25663706143592E-06
 Electric constant or permittivity of vacuum [F/m]          8.85418781762039E-12
 Planck constant (h) [J*s]                                  6.62606896000000E-34
 Planck constant (h-bar) [J*s]                              1.05457162825177E-34
 Elementary charge [C]                                      1.60217648700000E-19
 Electron mass [kg]                                         9.10938215000000E-31
 Electron g factor [ ]                                     -2.00231930436220E+00
 Proton mass [kg]                                           1.67262163700000E-27
 Fine-structure constant                                    7.29735253760000E-03
 Rydberg constant [1/m]                                     1.09737315685270E+07
 Avogadro constant [1/mol]                                  6.02214179000000E+23
 Boltzmann constant [J/K]                                   1.38065040000000E-23
 Atomic mass unit [kg]                                      1.66053878200000E-27
 Bohr radius [m]                                            5.29177208590000E-11

 *** Conversion factors ***

 [u] -> [a.u.]                                              1.82288848426455E+03
 [Angstrom] -> [Bohr] = [a.u.]                              1.88972613288564E+00
 [a.u.] = [Bohr] -> [Angstrom]                              5.29177208590000E-01
 [a.u.] -> [s]                                              2.41888432650478E-17
 [a.u.] -> [fs]                                             2.41888432650478E-02
 [a.u.] -> [J]                                              4.35974393937059E-18
 [a.u.] -> [N]                                              8.23872205491840E-08
 [a.u.] -> [K]                                              3.15774647902944E+05
 [a.u.] -> [kJ/mol]                                         2.62549961709828E+03
 [a.u.] -> [kcal/mol]                                       6.27509468713739E+02
 [a.u.] -> [Pa]                                             2.94210107994716E+13
 [a.u.] -> [bar]                                            2.94210107994716E+08
 [a.u.] -> [atm]                                            2.90362800883016E+08
 [a.u.] -> [eV]                                             2.72113838565563E+01
 [a.u.] -> [Hz]                                             6.57968392072181E+15
 [a.u.] -> [1/cm] (wave numbers)                            2.19474631370540E+05
 [a.u./Bohr**2] -> [1/cm]                                   5.14048714338585E+03
 

 CELL_TOP| Volume [angstrom^3]:                                     27000.000000
 CELL_TOP| Vector a [angstrom    30.000     0.000     0.000   |a| =    30.000000
 CELL_TOP| Vector b [angstrom     0.000    30.000     0.000   |b| =    30.000000
 CELL_TOP| Vector c [angstrom     0.000     0.000    30.000   |c| =    30.000000
 CELL_TOP| Angle (b,c), alpha [degree]:                                90.000000
 CELL_TOP| Angle (a,c), beta  [degree]:                                90.000000
 CELL_TOP| Angle (a,b), gamma [degree]:                                90.000000
 CELL_TOP| Numerically orthorhombic:                                         YES
 CELL_TOP| Periodicity                                                      NONE

 GENERATE|  Preliminary Number of Bonds generated:                             0
 GENERATE|  Achieved consistency in connectivity generation.

 CELL| Volume [angstrom^3]:                                         27000.000000
 CELL| Vector a [angstrom]:      30.000     0.000     0.000   |a| =    30.000000
 CELL| Vector b [angstrom]:       0.000    30.000     0.000   |b| =    30.000000
 CELL| Vector c [angstrom]:       0.000     0.000    30.000   |c| =    30.000000
 CELL| Angle (b,c), alpha [degree]:                                    90.000000
 CELL| Angle (a,c), beta  [degree]:                                    90.000000
 CELL| Angle (a,b), gamma [degree]:                                    90.000000
 CELL| Numerically orthorhombic:                                             YES
 CELL| Periodicity                                                          NONE

 CELL_REF| Volume [angstrom^3]:                                     27000.000000
 CELL_REF| Vector a [angstrom    30.000     0.000     0.000   |a| =    30.000000
 CELL_REF| Vector b [angstrom     0.000    30.000     0.000   |b| =    30.000000
 CELL_REF| Vector c [angstrom     0.000     0.000    30.000   |c| =    30.000000
 CELL_REF| Angle (b,c), alpha [degree]:                                90.000000
 CELL_REF| Angle (a,c), beta  [degree]:                                90.000000
 CELL_REF| Angle (a,b), gamma [degree]:                                90.000000
 CELL_REF| Numerically orthorhombic:                                         YES
 CELL_REF| Periodicity                                                      NONE

 *******************************************************************************
 *******************************************************************************
 **                                                                           **
 **     #####                         ##              ##                      **
 **    ##   ##            ##          ##              ##                      **
 **   ##     ##                       ##            ######                    **
 **   ##     ##  ##   ##  ##   #####  ##  ##   ####   ##    #####    #####    **
 **   ##     ##  ##   ##  ##  ##      ## ##   ##      ##   ##   ##  ##   ##   **
 **   ##  ## ##  ##   ##  ##  ##      ####     ###    ##   ######   ######    **
 **    ##  ###   ##   ##  ##  ##      ## ##      ##   ##   ##       ##        **
 **     #######   #####   ##   #####  ##  ##  ####    ##    #####   ##        **
 **           ##                                                    ##        **
 **                                                                           **
 **                                                ... make the atoms dance   **
 **                                                                           **
 **            Copyright (C) by CP2K developers group (2000-2025)             **
 **                      J. Chem. Phys. 152, 194103 (2020)                    **
 **                                                                           **
 *******************************************************************************

 DFT| Spin restricted Kohn-Sham (RKS) calculation                            RKS
 DFT| Multiplicity                                                             1
 DFT| Number of spin states                                                    1
 DFT| Charge                                                                   0
 DFT| Self-interaction correction (SIC)                                       NO
 DFT| Cutoffs: density                                              1.000000E-10
 DFT|          gradient                                             1.000000E-10
 DFT|          tau                                                  1.000000E-10
 DFT|          cutoff_smoothing_range                               0.000000E+00
 DFT| XC density smoothing                                                  NONE
 DFT| XC derivatives                                                          PW

 FUNCTIONAL| PBE:
 FUNCTIONAL| J.P.Perdew, K.Burke, M.Ernzerhof, Phys. Rev. Letter, vol. 77, n 18,
 FUNCTIONAL|  pp. 3865-3868, (1996)sx=0.750sc=1.000{spin unpolarized}           


 QS| Method:                                                                GAPW
 QS| Density plane wave grid type                        NON-SPHERICAL FULLSPACE
 QS| Number of grid levels:                                                    4
 QS| Density cutoff [a.u.]:                                                250.0
 QS| Multi grid cutoff [a.u.]: 1) grid level                               250.0
 QS|                           2) grid level                                83.3
 QS|                           3) grid level                                27.8
 QS|                           4) grid level                                 9.3
 QS| Grid level progression factor:                                          3.0
 QS| Relative density cutoff [a.u.]:                                        50.0
 QS| Interaction thresholds: eps_pgf_orb:                                1.0E-12
 QS|                         eps_filter_matrix:                          0.0E+00
 QS|                         eps_core_charge:                            1.0E-14
 QS|                         eps_rho_gspace:                             1.0E-12
 QS|                         eps_rho_rspace:                             1.0E-12
 QS|                         eps_gvg_rspace:                             1.0E-06
 QS|                         eps_ppl:                                    1.0E-02
 QS|                         eps_ppnl:                                   1.0E-08
 QS| GAPW|      One center basis from orbital basis primitives
 QS| GAPW|                   eps_fit:                                    1.0E-04
 QS| GAPW|                   eps_iso:                                    1.0E-12
 QS| GAPW|                   eps_svd:                                    1.0E-08
 QS| GAPW|                   eps_cpc:                                    1.0E-12
 QS| GAPW|   atom-r-grid: quadrature:                                     GC_LOG
 QS| GAPW|      atom-s-grid:  max l :                                          4
 QS| GAPW|      max_l_rho0 :                                                   2
 QS| GAPW|      At least one kind is NOT PAW, i.e. it has only soft AO 
 QS| GAPW|      The NOT PAW atoms are treated fully GPW


 ATOMIC KIND INFORMATION

  1. Atomic kind: N                                     Number of atoms:       4

     Orbital Basis Set                                      aug-SZV-MOLOPT-ae-SR

       Number of orbital shell sets:                                           2
       Number of orbital shells:                                               6
       Number of primitive Cartesian functions:                                7
       Number of Cartesian basis functions:                                   15
       Number of spherical basis functions:                                   14
       Norm type:                                                              2

       Normalised Cartesian orbitals:

                        Set   Shell   Orbital            Exponent    Coefficient

                          1       1    1s                0.112012       0.000000
                                                         0.285714       0.194997
                                                         0.878497       0.258372
                                                         3.780456      -0.193164

                          1       2    2s                0.112012       0.083551
                                                         0.285714      -0.189186
                                                         0.878497      -0.469875
                                                         3.780456      -0.002085

                          1       3    2px               0.112012       0.000000
                                                         0.285714       0.116706
                                                         0.878497       0.736704
                                                         3.780456       1.171553
                          1       3    2py               0.112012       0.000000
                                                         0.285714       0.116706
                                                         0.878497       0.736704
                                                         3.780456       1.171553
                          1       3    2pz               0.112012       0.000000
                                                         0.285714       0.116706
                                                         0.878497       0.736704
                                                         3.780456       1.171553

                          1       4    3px               0.112012       0.141957
                                                         0.285714      -0.286713
                                                         0.878497       0.074784
                                                         3.780456       0.008085
                          1       4    3py               0.112012       0.141957
                                                         0.285714      -0.286713
                                                         0.878497       0.074784
                                                         3.780456       0.008085
                          1       4    3pz               0.112012       0.141957
                                                         0.285714      -0.286713
                                                         0.878497       0.074784
                                                         3.780456       0.008085

                          1       5    3dx2              0.112012      -0.000364
                                                         0.285714       0.186009
                                                         0.878497      -0.044751
                                                         3.780456       1.815169
                          1       5    3dxy              0.112012      -0.000630
                                                         0.285714       0.322177
                                                         0.878497      -0.077512
                                                         3.780456       3.143965
                          1       5    3dxz              0.112012      -0.000630
                                                         0.285714       0.322177
                                                         0.878497      -0.077512
                                                         3.780456       3.143965
                          1       5    3dy2              0.112012      -0.000364
                                                         0.285714       0.186009
                                                         0.878497      -0.044751
                                                         3.780456       1.815169
                          1       5    3dyz              0.112012      -0.000630
                                                         0.285714       0.322177
                                                         0.878497      -0.077512
                                                         3.780456       3.143965
                          1       5    3dz2              0.112012      -0.000364
                                                         0.285714       0.186009
                                                         0.878497      -0.044751
                                                         3.780456       1.815169

                          2       1    1s               99.106169       3.454881
                                                        18.052312       3.341410
                                                         4.885660       1.041372

     RI Auxiliary Basis Set             RI_aug-SZV-MOLOPT-ae-SR_N_RI_089_s_p_d_f

       Number of orbital shell sets:                                          21
       Number of orbital shells:                                              21
       Number of primitive Cartesian functions:                               21
       Number of Cartesian basis functions:                                  120
       Number of spherical basis functions:                                   89
       Norm type:                                                              2

       Normalised Cartesian orbitals:

                        Set   Shell   Orbital            Exponent    Coefficient

                          1       1    1s                0.267502       0.265097

                          2       1    7px               0.363169       0.401861
                          2       1    7py               0.363169       0.401861
                          2       1    7pz               0.363169       0.401861

                          3       1   12dx2              0.369517       0.288250
                          3       1   12dxy              0.369517       0.499264
                          3       1   12dxz              0.369517       0.499264
                          3       1   12dy2              0.369517       0.288250
                          3       1   12dyz              0.369517       0.499264
                          3       1   12dz2              0.369517       0.288250

                          4       1    2s                0.470345       0.404783

                          5       1   16fx3              0.516119       0.332385
                          5       1   16fx2y             0.516119       0.743236
                          5       1   16fx2z             0.516119       0.743236
                          5       1   16fxy2             0.516119       0.743236
                          5       1   16fxyz             0.516119       1.287322
                          5       1   16fxz2             0.516119       0.743236
                          5       1   16fy3              0.516119       0.332385
                          5       1   16fy2z             0.516119       0.743236
                          5       1   16fyz2             0.516119       0.743236
                          5       1   16fz3              0.516119       0.332385

                          6       1   13dx2              0.573630       0.622322
                          6       1   13dxy              0.573630       1.077893
                          6       1   13dxz              0.573630       1.077893
                          6       1   13dy2              0.573630       0.622322
                          6       1   13dyz              0.573630       1.077893
                          6       1   13dz2              0.573630       0.622322

                          7       1    8px               0.636008       0.809596
                          7       1    8py               0.636008       0.809596
                          7       1    8pz               0.636008       0.809596

                          8       1   19gx4              0.870859       0.760838
                          8       1   19gx3y             0.870859       2.012988
                          8       1   19gx3z             0.870859       2.012988
                          8       1   19gx2y2            0.870859       2.598756
                          8       1   19gx2yz            0.870859       4.501178
                          8       1   19gx2z2            0.870859       2.598756
                          8       1   19gxy3             0.870859       2.012988
                          8       1   19gxy2z            0.870859       4.501178
                          8       1   19gxyz2            0.870859       4.501178
                          8       1   19gxz3             0.870859       2.012988
                          8       1   19gy4              0.870859       0.760838
                          8       1   19gy3z             0.870859       2.012988
                          8       1   19gy2z2            0.870859       2.598756
                          8       1   19gyz3             0.870859       2.012988
                          8       1   19gz4              0.870859       0.760838

                          9       1   17fx3              1.154647       2.034537
                          9       1   17fx2y             1.154647       4.549363
                          9       1   17fx2z             1.154647       4.549363
                          9       1   17fxy2             1.154647       4.549363
                          9       1   17fxyz             1.154647       7.879729
                          9       1   17fxz2             1.154647       4.549363
                          9       1   17fy3              1.154647       2.034537
                          9       1   17fy2z             1.154647       4.549363
                          9       1   17fyz2             1.154647       4.549363
                          9       1   17fz3              1.154647       2.034537

                         10       1   20gx4              1.247848       2.045878
                         10       1   20gx3y             1.247848       5.412884
                         10       1   20gx3z             1.247848       5.412884
                         10       1   20gx2y2            1.247848       6.988003
                         10       1   20gx2yz            1.247848      12.103577
                         10       1   20gx2z2            1.247848       6.988003
                         10       1   20gxy3             1.247848       5.412884
                         10       1   20gxy2z            1.247848      12.103577
                         10       1   20gxyz2            1.247848      12.103577
                         10       1   20gxz3             1.247848       5.412884
                         10       1   20gy4              1.247848       2.045878
                         10       1   20gy3z             1.247848       5.412884
                         10       1   20gy2z2            1.247848       6.988003
                         10       1   20gyz3             1.247848       5.412884
                         10       1   20gz4              1.247848       2.045878

                         11       1    3s                1.608218       1.017815

                         12       1   21gx4              1.820317       5.778825
                         12       1   21gx3y             1.820317      15.289334
                         12       1   21gx3z             1.820317      15.289334
                         12       1   21gx2y2            1.820317      19.738445
                         12       1   21gx2yz            1.820317      34.187990
                         12       1   21gx2z2            1.820317      19.738445
                         12       1   21gxy3             1.820317      15.289334
                         12       1   21gxy2z            1.820317      34.187990
                         12       1   21gxyz2            1.820317      34.187990
                         12       1   21gxz3             1.820317      15.289334
                         12       1   21gy4              1.820317       5.778825
                         12       1   21gy3z             1.820317      15.289334
                         12       1   21gy2z2            1.820317      19.738445
                         12       1   21gyz3             1.820317      15.289334
                         12       1   21gz4              1.820317       5.778825

                         13       1   14dx2              2.087918       5.969089
                         13       1   14dxy              2.087918      10.338765
                         13       1   14dxz              2.087918      10.338765
                         13       1   14dy2              2.087918       5.969089
                         13       1   14dyz              2.087918      10.338765
                         13       1   14dz2              2.087918       5.969089

                         14       1    9px               2.537910       4.565993
                         14       1    9py               2.537910       4.565993
                         14       1    9pz               2.537910       4.565993

                         15       1   18fx3              3.628403      26.749427
                         15       1   18fx2y             3.628403      59.813538
                         15       1   18fx2z             3.628403      59.813538
                         15       1   18fxy2             3.628403      59.813538
                         15       1   18fxyz             3.628403     103.600086
                         15       1   18fxz2             3.628403      59.813538
                         15       1   18fy3              3.628403      26.749427
                         15       1   18fy2z             3.628403      59.813538
                         15       1   18fyz2             3.628403      59.813538
                         15       1   18fz3              3.628403      26.749427

                         16       1   15dx2              5.366720      31.145839
                         16       1   15dxy              5.366720      53.946175
                         16       1   15dxz              5.366720      53.946175
                         16       1   15dy2              5.366720      31.145839
                         16       1   15dyz              5.366720      53.946175
                         16       1   15dz2              5.366720      31.145839

                         17       1    4s                7.348149       3.180853

                         18       1   10px               7.396841      17.387931
                         18       1   10py               7.396841      17.387931
                         18       1   10pz               7.396841      17.387931

                         19       1   11px              21.508501      66.024142
                         19       1   11py              21.508501      66.024142
                         19       1   11pz              21.508501      66.024142

                         20       1    5s               29.895673       9.112055

                         21       1    6s              109.779167      24.171302

       Atomic covalent radius [Angstrom]:                                  0.750

       Atomic van der Waals radius [Angstrom]:                             1.550

     The atoms of this atomic kind are PAW atoms (GAPW):
       Hard Gaussian function radius:                                      1.512
       Rho0 radius:                                                        1.512
       Maximum GTO radius used for PAW projector construction:            24.566

     GAPW Soft Basis Set                               aug-SZV-MOLOPT-ae-SR_soft

       Number of orbital shell sets:                                           2
       Number of orbital shells:                                               6
       Number of primitive Cartesian functions:                                4
       Number of Cartesian basis functions:                                   15
       Number of spherical basis functions:                                   14
       Norm type:                                                              2

       Normalised Cartesian orbitals:

                        Set   Shell   Orbital            Exponent    Coefficient

                          1       1    1s                0.112012       0.000000
                                                         0.285714       0.194997
                                                         0.878497       0.258372
                                                         3.780456      -0.193164

                          1       2    2s                0.112012       0.083551
                                                         0.285714      -0.189186
                                                         0.878497      -0.469875
                                                         3.780456      -0.002085

                          1       3    2px               0.112012       0.000000
                                                         0.285714       0.116706
                                                         0.878497       0.736704
                                                         3.780456       1.171553
                          1       3    2py               0.112012       0.000000
                                                         0.285714       0.116706
                                                         0.878497       0.736704
                                                         3.780456       1.171553
                          1       3    2pz               0.112012       0.000000
                                                         0.285714       0.116706
                                                         0.878497       0.736704
                                                         3.780456       1.171553

                          1       4    3px               0.112012       0.141957
                                                         0.285714      -0.286713
                                                         0.878497       0.074784
                                                         3.780456       0.008085
                          1       4    3py               0.112012       0.141957
                                                         0.285714      -0.286713
                                                         0.878497       0.074784
                                                         3.780456       0.008085
                          1       4    3pz               0.112012       0.141957
                                                         0.285714      -0.286713
                                                         0.878497       0.074784
                                                         3.780456       0.008085

                          1       5    3dx2              0.112012      -0.000364
                                                         0.285714       0.186009
                                                         0.878497      -0.044751
                                                         3.780456       1.815169
                          1       5    3dxy              0.112012      -0.000630
                                                         0.285714       0.322177
                                                         0.878497      -0.077512
                                                         3.780456       3.143965
                          1       5    3dxz              0.112012      -0.000630
                                                         0.285714       0.322177
                                                         0.878497      -0.077512
                                                         3.780456       3.143965
                          1       5    3dy2              0.112012      -0.000364
                                                         0.285714       0.186009
                                                         0.878497      -0.044751
                                                         3.780456       1.815169
                          1       5    3dyz              0.112012      -0.000630
                                                         0.285714       0.322177
                                                         0.878497      -0.077512
                                                         3.780456       3.143965
                          1       5    3dz2              0.112012      -0.000364
                                                         0.285714       0.186009
                                                         0.878497      -0.044751
                                                         3.780456       1.815169

                          2       1    1s         

     AE Potential information for                                            ALL

       Description:                                       All-electron potential
                                          Krack, Parrinello, PCCP 2, 2105 (2000)

       Gaussian exponent of the core charge distribution:               5.979100
       Electronic configuration (s p d ...):                           4   3   0

  2. Atomic kind: C                                     Number of atoms:       4

     Orbital Basis Set                                      aug-SZV-MOLOPT-ae-SR

       Number of orbital shell sets:                                           2
       Number of orbital shells:                                               6
       Number of primitive Cartesian functions:                                7
       Number of Cartesian basis functions:                                   15
       Number of spherical basis functions:                                   14
       Norm type:                                                              2

       Normalised Cartesian orbitals:

                        Set   Shell   Orbital            Exponent    Coefficient

                          1       1    2s                0.114559       0.000000
                                                         0.222290       0.161536
                                                         0.683483       0.214036
                                                         2.941249      -0.160017

                          1       2    3s                0.114559       0.078076
                                                         0.222290       0.130402
                                                         0.683483      -0.084834
                                                         2.941249       0.041379

                          1       3    3px               0.114559       0.000000
                                                         0.222290       0.085276
                                                         0.683483       0.538304
                                                         2.941249       0.856045
                          1       3    3py               0.114559       0.000000
                                                         0.222290       0.085276
                                                         0.683483       0.538304
                                                         2.941249       0.856045
                          1       3    3pz               0.114559       0.000000
                                                         0.222290       0.085276
                                                         0.683483       0.538304
                                                         2.941249       0.856045

                          1       4    4px               0.114559       0.224492
                                                         0.222290      -0.546182
                                                         0.683483       0.918493
                                                         2.941249      -0.348342
                          1       4    4py               0.114559       0.224492
                                                         0.222290      -0.546182
                                                         0.683483       0.918493
                                                         2.941249      -0.348342
                          1       4    4pz               0.114559       0.224492
                                                         0.222290      -0.546182
                                                         0.683483       0.918493
                                                         2.941249      -0.348342

                          1       5    4dx2              0.114559       0.004023
                                                         0.222290       0.096934
                                                         0.683483       0.116751
                                                         2.941249       0.357653
                          1       5    4dxy              0.114559       0.006968
                                                         0.222290       0.167895
                                                         0.683483       0.202218
                                                         2.941249       0.619473
                          1       5    4dxz              0.114559       0.006968
                                                         0.222290       0.167895
                                                         0.683483       0.202218
                                                         2.941249       0.619473
                          1       5    4dy2              0.114559       0.004023
                                                         0.222290       0.096934
                                                         0.683483       0.116751
                                                         2.941249       0.357653
                          1       5    4dyz              0.114559       0.006968
                                                         0.222290       0.167895
                                                         0.683483       0.202218
                                                         2.941249       0.619473
                          1       5    4dz2              0.114559       0.004023
                                                         0.222290       0.096934
                                                         0.683483       0.116751
                                                         2.941249       0.357653

                          2       1    1s               71.616837       2.707814
                                                        13.045096       2.618880
                                                         3.530512       0.816191

     RI Auxiliary Basis Set             RI_aug-SZV-MOLOPT-ae-SR_N_RI_075_s_p_d_f

       Number of orbital shell sets:                                          19
       Number of orbital shells:                                              19
       Number of primitive Cartesian functions:                               19
       Number of Cartesian basis functions:                                   99
       Number of spherical basis functions:                                   75
       Norm type:                                                              2

       Normalised Cartesian orbitals:

                        Set   Shell   Orbital            Exponent    Coefficient

                          1       1    7px               0.280788       0.291348
                          1       1    7py               0.280788       0.291348
                          1       1    7pz               0.280788       0.291348

                          2       1    1s                0.306994       0.293939

                          3       1   12dx2              0.425885       0.369548
                          3       1   12dxy              0.425885       0.640076
                          3       1   12dxz              0.425885       0.640076
                          3       1   12dy2              0.425885       0.369548
                          3       1   12dyz              0.425885       0.640076
                          3       1   12dz2              0.425885       0.369548

                          4       1   15fx3              0.441457       0.233859
                          4       1   15fx2y             0.441457       0.522924
                          4       1   15fx2z             0.441457       0.522924
                          4       1   15fxy2             0.441457       0.522924
                          4       1   15fxyz             0.441457       0.905731
                          4       1   15fxz2             0.441457       0.522924
                          4       1   15fy3              0.441457       0.233859
                          4       1   15fy2z             0.441457       0.522924
                          4       1   15fyz2             0.441457       0.522924
                          4       1   15fz3              0.441457       0.233859

                          5       1    8px               0.477699       0.566087
                          5       1    8py               0.477699       0.566087
                          5       1    8pz               0.477699       0.566087

                          6       1   16fx3              0.901688       1.166355
                          6       1   16fx2y             0.901688       2.608049
                          6       1   16fx2z             0.901688       2.608049
                          6       1   16fxy2             0.901688       2.608049
                          6       1   16fxyz             0.901688       4.517273
                          6       1   16fxz2             0.901688       2.608049
                          6       1   16fy3              0.901688       1.166355
                          6       1   16fy2z             0.901688       2.608049
                          6       1   16fyz2             0.901688       2.608049
                          6       1   16fz3              0.901688       1.166355

                          7       1   18gx4              0.934410       0.923449
                          7       1   18gx3y             0.934410       2.443217
                          7       1   18gx3z             0.934410       2.443217
                          7       1   18gx2y2            0.934410       3.154180
                          7       1   18gx2yz            0.934410       5.463200
                          7       1   18gx2z2            0.934410       3.154180
                          7       1   18gxy3             0.934410       2.443217
                          7       1   18gxy2z            0.934410       5.463200
                          7       1   18gxyz2            0.934410       5.463200
                          7       1   18gxz3             0.934410       2.443217
                          7       1   18gy4              0.934410       0.923449
                          7       1   18gy3z             0.934410       2.443217
                          7       1   18gy2z2            0.934410       3.154180
                          7       1   18gyz3             0.934410       2.443217
                          7       1   18gz4              0.934410       0.923449

                          8       1    2s                0.946862       0.684109

                          9       1    3s                1.268857       0.852059

                         10       1   13dx2              1.288245       2.563934
                         10       1   13dxy              1.288245       4.440865
                         10       1   13dxz              1.288245       4.440865
                         10       1   13dy2              1.288245       2.563934
                         10       1   13dyz              1.288245       4.440865
                         10       1   13dz2              1.288245       2.563934

                         11       1    9px               1.399800       2.170315
                         11       1    9py               1.399800       2.170315
                         11       1    9pz               1.399800       2.170315

                         12       1   19gx4              1.535589       3.619858
                         12       1   19gx3y             1.535589       9.577244
                         12       1   19gx3z             1.535589       9.577244
                         12       1   19gx2y2            1.535589      12.364169
                         12       1   19gx2yz            1.535589      21.415368
                         12       1   19gx2z2            1.535589      12.364169
                         12       1   19gxy3             1.535589       9.577244
                         12       1   19gxy2z            1.535589      21.415368
                         12       1   19gxyz2            1.535589      21.415368
                         12       1   19gxz3             1.535589       9.577244
                         12       1   19gy4              1.535589       3.619858
                         12       1   19gy3z             1.535589       9.577244
                         12       1   19gy2z2            1.535589      12.364169
                         12       1   19gyz3             1.535589       9.577244
                         12       1   19gz4              1.535589       3.619858

                         13       1   14dx2              2.335379       7.261643
                         13       1   14dxy              2.335379      12.577535
                         13       1   14dxz              2.335379      12.577535
                         13       1   14dy2              2.335379       7.261643
                         13       1   14dyz              2.335379      12.577535
                         13       1   14dz2              2.335379       7.261643

                         14       1   17fx3              2.532110      11.906668
                         14       1   17fx2y             2.532110      26.624119
                         14       1   17fx2z             2.532110      26.624119
                         14       1   17fxy2             2.532110      26.624119
                         14       1   17fxyz             2.532110      46.114327
                         14       1   17fxz2             2.532110      26.624119
                         14       1   17fy3              2.532110      11.906668
                         14       1   17fy2z             2.532110      26.624119
                         14       1   17fyz2             2.532110      26.624119
                         14       1   17fz3              2.532110      11.906668

                         15       1   10px               4.817840      10.174323
                         15       1   10py               4.817840      10.174323
                         15       1   10pz               4.817840      10.174323

                         16       1    4s                4.925178       2.356278

                         17       1   11px              16.202890      46.337296
                         17       1   11py              16.202890      46.337296
                         17       1   11pz              16.202890      46.337296

                         18       1    5s               21.643648       7.151678

                         19       1    6s               78.500404      18.795938

       Atomic covalent radius [Angstrom]:                                  0.770

       Atomic van der Waals radius [Angstrom]:                             1.700

     The atoms of this atomic kind are PAW atoms (GAPW):
       Hard Gaussian function radius:                                      1.512
       Rho0 radius:                                                        1.512
       Maximum GTO radius used for PAW projector construction:            24.566

     GAPW Soft Basis Set                               aug-SZV-MOLOPT-ae-SR_soft

       Number of orbital shell sets:                                           2
       Number of orbital shells:                                               6
       Number of primitive Cartesian functions:                                5
       Number of Cartesian basis functions:                                   15
       Number of spherical basis functions:                                   14
       Norm type:                                                              2

       Normalised Cartesian orbitals:

                        Set   Shell   Orbital            Exponent    Coefficient

                          1       1    2s                0.114559       0.000000
                                                         0.222290       0.161536
                                                         0.683483       0.214036
                                                         2.941249      -0.160017

                          1       2    3s                0.114559       0.078076
                                                         0.222290       0.130402
                                                         0.683483      -0.084834
                                                         2.941249       0.041379

                          1       3    3px               0.114559       0.000000
                                                         0.222290       0.085276
                                                         0.683483       0.538304
                                                         2.941249       0.856045
                          1       3    3py               0.114559       0.000000
                                                         0.222290       0.085276
                                                         0.683483       0.538304
                                                         2.941249       0.856045
                          1       3    3pz               0.114559       0.000000
                                                         0.222290       0.085276
                                                         0.683483       0.538304
                                                         2.941249       0.856045

                          1       4    4px               0.114559       0.224492
                                                         0.222290      -0.546182
                                                         0.683483       0.918493
                                                         2.941249      -0.348342
                          1       4    4py               0.114559       0.224492
                                                         0.222290      -0.546182
                                                         0.683483       0.918493
                                                         2.941249      -0.348342
                          1       4    4pz               0.114559       0.224492
                                                         0.222290      -0.546182
                                                         0.683483       0.918493
                                                         2.941249      -0.348342

                          1       5    4dx2              0.114559       0.004023
                                                         0.222290       0.096934
                                                         0.683483       0.116751
                                                         2.941249       0.357653
                          1       5    4dxy              0.114559       0.006968
                                                         0.222290       0.167895
                                                         0.683483       0.202218
                                                         2.941249       0.619473
                          1       5    4dxz              0.114559       0.006968
                                                         0.222290       0.167895
                                                         0.683483       0.202218
                                                         2.941249       0.619473
                          1       5    4dy2              0.114559       0.004023
                                                         0.222290       0.096934
                                                         0.683483       0.116751
                                                         2.941249       0.357653
                          1       5    4dyz              0.114559       0.006968
                                                         0.222290       0.167895
                                                         0.683483       0.202218
                                                         2.941249       0.619473
                          1       5    4dz2              0.114559       0.004023
                                                         0.222290       0.096934
                                                         0.683483       0.116751
                                                         2.941249       0.357653

                          2       1    1s                3.530512       0.816191

     AE Potential information for                                            ALL

       Description:                                       All-electron potential
                                          Krack, Parrinello, PCCP 2, 2105 (2000)

       Gaussian exponent of the core charge distribution:               4.109048
       Electronic configuration (s p d ...):                           4   2   0

  3. Atomic kind: H                                     Number of atoms:       4

     Orbital Basis Set                                      aug-SZV-MOLOPT-ae-SR

       Number of orbital shell sets:                                           1
       Number of orbital shells:                                               4
       Number of primitive Cartesian functions:                                4
       Number of Cartesian basis functions:                                    6
       Number of spherical basis functions:                                    6
       Norm type:                                                              2

       Normalised Cartesian orbitals:

                        Set   Shell   Orbital            Exponent    Coefficient

                          1       1    2s                0.065428       0.000000
                                                         0.168855       0.083474
                                                         0.623914       0.267839
                                                         3.425251       0.276934

                          1       2    3s                0.065428      -0.066952
                                                         0.168855       0.261968
                                                         0.623914       0.081548
                                                         3.425251      -0.022414

                          1       3    4s                0.065428       0.165615
                                                         0.168855      -0.226449
                                                         0.623914      -0.005802
                                                         3.425251       0.005451

                          1       4    3px               0.065428       0.053063
                                                         0.168855      -0.030502
                                                         0.623914       0.062721
                                                         3.425251       0.019012
                          1       4    3py               0.065428       0.053063
                                                         0.168855      -0.030502
                                                         0.623914       0.062721
                                                         3.425251       0.019012
                          1       4    3pz               0.065428       0.053063
                                                         0.168855      -0.030502
                                                         0.623914       0.062721
                                                         3.425251       0.019012

     RI Auxiliary Basis Set             RI_aug-SZV-MOLOPT-ae-SR_N_RI_035_s_p_d_f

       Number of orbital shell sets:                                          15
       Number of orbital shells:                                              15
       Number of primitive Cartesian functions:                               15
       Number of Cartesian basis functions:                                   37
       Number of spherical basis functions:                                   35
       Norm type:                                                              2

       Normalised Cartesian orbitals:

                        Set   Shell   Orbital            Exponent    Coefficient

                          1       1    1s                0.236911       0.242019

                          2       1    8px               0.347892       0.380843
                          2       1    8py               0.347892       0.380843
                          2       1    8pz               0.347892       0.380843

                          3       1    2s                0.423897       0.374417

                          4       1    9px               0.493166       0.589089
                          4       1    9py               0.493166       0.589089
                          4       1    9pz               0.493166       0.589089

                          5       1   14dx2              0.625366       0.723843
                          5       1   14dxy              0.625366       1.253733
                          5       1   14dxz              0.625366       1.253733
                          5       1   14dy2              0.625366       0.723843
                          5       1   14dyz              0.625366       1.253733
                          5       1   14dz2              0.625366       0.723843

                          6       1   10px               0.699103       0.911206
                          6       1   10py               0.699103       0.911206
                          6       1   10pz               0.699103       0.911206

                          7       1    3s                0.758464       0.579244

                          8       1   11px               0.991036       1.409457
                          8       1   11py               0.991036       1.409457
                          8       1   11pz               0.991036       1.409457

                          9       1   15dx2              1.286053       2.556305
                          9       1   15dxy              1.286053       4.427650
                          9       1   15dxz              1.286053       4.427650
                          9       1   15dy2              1.286053       2.556305
                          9       1   15dyz              1.286053       4.427650
                          9       1   15dz2              1.286053       2.556305

                         10       1    4s                1.357095       0.896123

                         11       1   12px               1.404875       2.180155
                         11       1   12py               1.404875       2.180155
                         11       1   12pz               1.404875       2.180155

                         12       1   13px               1.991527       3.372273
                         12       1   13py               1.991527       3.372273
                         12       1   13pz               1.991527       3.372273

                         13       1    5s                2.428204       1.386354

                         14       1    6s                4.344704       2.144768

                         15       1    7s                7.773833       3.318077

       Atomic covalent radius [Angstrom]:                                  0.320

       Atomic van der Waals radius [Angstrom]:                             1.090

     AE Potential information for                                            ALL

       Description:                                       All-electron potential
                                          Krack, Parrinello, PCCP 2, 2105 (2000)

       Gaussian exponent of the core charge distribution:              12.500000
       Electronic configuration (s p d ...):                           1   0   0

  4. Atomic kind: Cl                                    Number of atoms:       2

     Orbital Basis Set                                         aug-SZV-MOLOPT-ae

       Number of orbital shell sets:                                           3
       Number of orbital shells:                                               8
       Number of primitive Cartesian functions:                               19
       Number of Cartesian basis functions:                                   19
       Number of spherical basis functions:                                   18
       Norm type:                                                              2

       Normalised Cartesian orbitals:

                        Set   Shell   Orbital            Exponent    Coefficient

                          1       1    1s                0.077000       0.000000
                                                         0.155732       0.048775
                                                         0.302177       0.213641
                                                         0.610646       0.074372
                                                         1.364210      -0.160589
                                                         3.637791      -0.133295
                                                        13.583529      -0.040055

                          1       2    2s                0.077000       0.113098
                                                         0.155732      -0.001418
                                                         0.302177      -0.032953
                                                         0.610646       0.000940
                                                         1.364210      -0.000650
                                                         3.637791      -0.006480
                                                        13.583529       0.000000

                          1       3    2px               0.077000       0.000000
                                                         0.155732       0.014765
                                                         0.302177       0.156150
                                                         0.610646       0.318942
                                                         1.364210       0.160173
                                                         3.637791      -0.130999
                                                        13.583529      -0.265378
                          1       3    2py               0.077000       0.000000
                                                         0.155732       0.014765
                                                         0.302177       0.156150
                                                         0.610646       0.318942
                                                         1.364210       0.160173
                                                         3.637791      -0.130999
                                                        13.583529      -0.265378
                          1       3    2pz               0.077000       0.000000
                                                         0.155732       0.014765
                                                         0.302177       0.156150
                                                         0.610646       0.318942
                                                         1.364210       0.160173
                                                         3.637791      -0.130999
                                                        13.583529      -0.265378

                          1       4    3px               0.077000       0.044533
                                                         0.155732       0.031887
                                                         0.302177       0.011087
                                                         0.610646      -0.025806
                                                         1.364210       0.119111
                                                         3.637791       0.324938
                                                        13.583529       0.000000
                          1       4    3py               0.077000       0.044533
                                                         0.155732       0.031887
                                                         0.302177       0.011087
                                                         0.610646      -0.025806
                                                         1.364210       0.119111
                                                         3.637791       0.324938
                                                        13.583529       0.000000
                          1       4    3pz               0.077000       0.044533
                                                         0.155732       0.031887
                                                         0.302177       0.011087
                                                         0.610646      -0.025806
                                                         1.364210       0.119111
                                                         3.637791       0.324938
                                                        13.583529       0.000000

                          1       5    3dx2              0.077000       0.003672
                                                         0.155732       0.001893
                                                         0.302177       0.117944
                                                         0.610646       0.097225
                                                         1.364210       0.782555
                                                         3.637791       0.872236
                                                        13.583529       0.000000
                          1       5    3dxy              0.077000       0.006359
                                                         0.155732       0.003279
                                                         0.302177       0.204285
                                                         0.610646       0.168398
                                                         1.364210       1.355425
                                                         3.637791       1.510758
                                                        13.583529       0.000000
                          1       5    3dxz              0.077000       0.006359
                                                         0.155732       0.003279
                                                         0.302177       0.204285
                                                         0.610646       0.168398
                                                         1.364210       1.355425
                                                         3.637791       1.510758
                                                        13.583529       0.000000
                          1       5    3dy2              0.077000       0.003672
                                                         0.155732       0.001893
                                                         0.302177       0.117944
                                                         0.610646       0.097225
                                                         1.364210       0.782555
                                                         3.637791       0.872236
                                                        13.583529       0.000000
                          1       5    3dyz              0.077000       0.006359
                                                         0.155732       0.003279
                                                         0.302177       0.204285
                                                         0.610646       0.168398
                                                         1.364210       1.355425
                                                         3.637791       1.510758
                                                        13.583529       0.000000
                          1       5    3dz2              0.077000       0.003672
                                                         0.155732       0.001893
                                                         0.302177       0.117944
                                                         0.610646       0.097225
                                                         1.364210       0.782555
                                                         3.637791       0.872236
                                                        13.583529       0.000000

                          2       1    1s              403.972966      -0.851102
                                                        79.956793      -0.895515
                                                        24.850512      -0.268003
                                                         9.560888       0.969714
                                                         4.152300       1.233756
                                                         1.903303       0.277989

                          2       2    2px             403.972966       9.705843
                                                        79.956793      12.841416
                                                        24.850512      13.753103
                                                         9.560888      10.017907
                                                         4.152300       3.598052
                                                         1.903303       0.324102
                          2       2    2py             403.972966       9.705843
                                                        79.956793      12.841416
                                                        24.850512      13.753103
                                                         9.560888      10.017907
                                                         4.152300       3.598052
                                                         1.903303       0.324102
                          2       2    2pz             403.972966       9.705843
                                                        79.956793      12.841416
                                                        24.850512      13.753103
                                                         9.560888      10.017907
                                                         4.152300       3.598052
                                                         1.903303       0.324102

                          3       1    1s             6236.545525       4.583362
                                                      1143.463795       6.917755
                                                       319.899964       9.085929
                                                       109.894271       8.964028
                                                        42.675161       4.956187
                                                        17.575988       0.797366

     RI Auxiliary Basis Set             RI_aug-SZV-MOLOPT-ae_N_RI_112_s_p_d_f_g_

       Number of orbital shell sets:                                          24
       Number of orbital shells:                                              24
       Number of primitive Cartesian functions:                               24
       Number of Cartesian basis functions:                                  167
       Number of spherical basis functions:                                  112
       Norm type:                                                              2

       Normalised Cartesian orbitals:

                        Set   Shell   Orbital            Exponent    Coefficient

                          1       1   20gx4              0.279015       0.033259
                          1       1   20gx3y             0.279015       0.087996
                          1       1   20gx3z             0.279015       0.087996
                          1       1   20gx2y2            0.279015       0.113602
                          1       1   20gx2yz            0.279015       0.196764
                          1       1   20gx2z2            0.279015       0.113602
                          1       1   20gxy3             0.279015       0.087996
                          1       1   20gxy2z            0.279015       0.196764
                          1       1   20gxyz2            0.279015       0.196764
                          1       1   20gxz3             0.279015       0.087996
                          1       1   20gy4              0.279015       0.033259
                          1       1   20gy3z             0.279015       0.087996
                          1       1   20gy2z2            0.279015       0.113602
                          1       1   20gyz3             0.279015       0.087996
                          1       1   20gz4              0.279015       0.033259

                          2       1    8px               0.330765       0.357552
                          2       1    8py               0.330765       0.357552
                          2       1    8pz               0.330765       0.357552

                          3       1    1s                0.339703       0.317128

                          4       1   14dx2              0.562661       0.601646
                          4       1   14dxy              0.562661       1.042081
                          4       1   14dxz              0.562661       1.042081
                          4       1   14dy2              0.562661       0.601646
                          4       1   14dyz              0.562661       1.042081
                          4       1   14dz2              0.562661       0.601646

                          5       1   17fx3              0.671109       0.600120
                          5       1   17fx2y             0.671109       1.341909
                          5       1   17fx2z             0.671109       1.341909
                          5       1   17fxy2             0.671109       1.341909
                          5       1   17fxyz             0.671109       2.324255
                          5       1   17fxz2             0.671109       1.341909
                          5       1   17fy3              0.671109       0.600120
                          5       1   17fy2z             0.671109       1.341909
[...]
 xc_functional_eval                 360 10.8    0.001    0.001    1.455    1.839
 pbe_lda_eval                       360 11.8    1.455    1.838    1.455    1.838
 integrate_four_center_main          73 10.0    0.031    1.061    0.496    1.685
 transfer_pw2rs_30                   73 12.0    0.693    0.751    1.293    1.371
 calculate_vxc_atom                  73  8.0    0.027    0.115    1.085    1.086
 transfer_rs2pw_30                   73  9.0    0.308    0.341    1.009    1.080
 transfer_pw2rs_90                   73 12.0    0.146    0.193    0.873    1.076
 pw_scatter_p                       797 12.1    1.014    1.065    1.014    1.065
 create_hermitian_form_of_ABBA        1  8.0    0.000    0.000    1.052    1.056
 diagonalize_C                        1  8.0    0.000    0.000    0.990    0.990
 gaVxcgb_GC                         144  9.0    0.041    0.990    0.041    0.990
 mp_sendrecv_dv                   11534 10.0    0.882    0.956    0.882    0.956
 transfer_rs2pw_90                   73  9.0    0.166    0.205    0.825    0.937
 qs_scf_new_mos                      72  5.0    0.001    0.001    0.898    0.937
 integrate_four_center_getP          73 10.0    0.006    0.007    0.924    0.926
 pw_derive                          651 11.3    0.866    0.914    0.866    0.914
 cp_fm_power                          2  7.5    0.019    0.021    0.898    0.903
 rpa_num_int_RPA_matrix_operati     100  7.0    0.001    0.002    0.860    0.862
 pw_gather_p                        728 11.8    0.756    0.806    0.756    0.806
 pw_copy                           1090 10.6    0.760    0.792    0.760    0.792
 powell_optimize                 505604 11.0    0.728    0.743    0.728    0.743
 integrate_four_center_bin         7860 11.0    0.465    0.722    0.465    0.722
 cp2k_distribution_to_z_slices       73  9.0    0.273    0.301    0.681    0.708
 mp_isend_dv                      12707 11.8    0.237    0.702    0.237    0.702
 calc_screening_functions             1 10.0    0.252    0.264    0.674    0.694
 mp2_ri_gpw_compute_in                1  5.0    0.000    0.000    0.686    0.687
 calculate_rho_atom                 219  9.0    0.262    0.655    0.262    0.655
 transfer_pw2rs_10                   73 12.0    0.118    0.126    0.589    0.629
 mp2_ri_gpw_compute_in_loop           1  6.0    0.000    0.000    0.621    0.621
 compute_vec_Sigma_x_minus_vxc_       1  4.0    0.000    0.000    0.589    0.589
 eigensolver_symm                    73  6.0    0.005    0.006    0.578    0.581
 rs_grid_zero                       368 11.1    0.524    0.557    0.524    0.557
 mp_sum_dm                         2267  7.6    0.481    0.552    0.481    0.552
 mp_sum_dv                         9629 10.5    0.492    0.533    0.492    0.533
 pw_copy_to_array                   728 11.8    0.433    0.528    0.433    0.528
 contract_B_L                         4  7.0    0.001    0.002    0.448    0.528
 pw_poisson_set                      74  8.9    0.001    0.001    0.500    0.526
 calc_mat_Q                         100  8.0    0.000    0.000    0.503    0.516
 contract_S_to_Q                    100  9.0    0.000    0.000    0.501    0.514
 fft_wrap_pw1pw2_90                 146 10.5    0.023    0.024    0.474    0.513
 calc_pair_dist_radii                 1 10.0    0.167    0.183    0.474    0.490
 cp_fm_cholesky_invert              101  8.0    0.479    0.489    0.479    0.489
 pw_copy_from_array                 797 12.1    0.374    0.450    0.374    0.450
 mp2_eri_3c_integrate                 1  7.0    0.001    0.002    0.124    0.424
 integrate_set_3c                  2536  8.0    0.109    0.388    0.123    0.422
 mp_cart_create                     501 10.1    0.342    0.422    0.342    0.422
 integrate_four_center_dist_KS       73 10.0    0.006    0.007    0.416    0.418
 dbt_pgrid_create_expert             84 10.8    0.000    0.000    0.321    0.402
 pw_axpy                            798  9.2    0.368    0.388    0.368    0.388
 pw_poisson_rebuild                  73  9.0    0.000    0.000    0.365    0.378
 ps_wavelet_create                    1 10.0    0.000    0.000    0.365    0.378
 RS_z_slice_distribution              1 11.0    0.253    0.275    0.365    0.378
 cp_fm_cholesky_decompose           102  9.0    0.356    0.370    0.356    0.370
 mp_isendrecv_dv                  23068 12.0    0.068    0.365    0.068    0.365
 pw_integral_ab_c1d_c1d_gs           73  9.0    0.320    0.328    0.348    0.360
 mp_isend_dm3                      2646 11.5    0.113    0.354    0.113    0.354
 rs_gather_matrices                  73 10.0    0.001    0.003    0.298    0.344
 compute_Erpa_by_freq_int           100  8.0    0.001    0.001    0.339    0.341
 qs_energies_init_hamiltonians        1  3.0    0.000    0.000    0.325    0.325
 grid_integrate_task_list            73 10.0    0.040    0.295    0.040    0.295
 build_core_hamiltonian_matrix        1  4.0    0.000    0.000    0.276    0.276
 overlap_condnum                      1  5.0    0.000    0.000    0.275    0.276
 transfer_rs2pw_10                   73  9.0    0.074    0.078    0.254    0.270
 mp2_main_alloc_hfx                   1  4.0    0.132    0.268    0.132    0.268
 mp_sum_i                            19  9.5    0.137    0.268    0.137    0.268
 restraint_control                    1  2.0    0.000    0.000    0.136    0.267
 arnoldi_conjugate_gradient           5  6.0    0.005    0.007    0.257    0.257
 calculate_dm_sparse                 72  6.0    0.000    0.000    0.199    0.229
 cp_dbcsr_plus_fm_fm_t               72  7.0    0.001    0.001    0.198    0.228
 init_scf_run                         1  3.0    0.000    0.000    0.221    0.221
 scale_and_distribute               146 10.0    0.067    0.220    0.067    0.220
 scf_env_initial_rho_setup            1  4.0    0.000    0.000    0.211    0.212
 dbcsr_multiply_generic             181  8.1    0.004    0.004    0.170    0.204
 pw_zero                            434 10.3    0.193    0.201    0.193    0.201
 qs_init_subsys                       1  2.0    0.001    0.001    0.179    0.180
 qs_env_setup                         1  3.0    0.000    0.000    0.175    0.176
 qs_env_rebuild_pw_env                2  3.5    0.000    0.000    0.175    0.176
 pw_env_rebuild                       1  5.0    0.000    0.000    0.175    0.176
 dbcsr_complete_redistribute        283  8.5    0.010    0.013    0.166    0.168
 pw_grid_setup                        4  6.0    0.000    0.000    0.163    0.164
 pw_grid_setup_internal               4  7.0    0.002    0.003    0.163    0.164
 copy_dbcsr_to_fm                   135  6.9    0.002    0.002    0.152    0.162
 calculate_rho_atom_coeff            73  6.0    0.018    0.029    0.154    0.155
 dbcsr_sym_matrix_vector_mult      1735  7.0    0.012    0.013    0.147    0.152
 update_ks_atom                      73  8.0    0.013    0.024    0.120    0.144
 fft_wrap_pw1pw2_30                 146 10.5    0.004    0.005    0.125    0.130
 create_qs_kind_set                   1  2.0    0.000    0.000    0.126    0.127
 read_qs_kind                         4  3.0    0.058    0.071    0.126    0.127
 cp_fm_to_fm_submat_general         112 10.1    0.105    0.125    0.105    0.125
 mp_bcast_dm                       1460  9.0    0.107    0.122    0.107    0.122
 dbt_total                            8  8.0    0.000    0.000    0.120    0.120
 pw_grid_sort                         4  8.0    0.082    0.085    0.111    0.115
 multiply_cannon                    181  9.1    0.008    0.008    0.080    0.114
 dbt_contract                         4  9.0    0.000    0.000    0.110    0.112
 mp_max_i                           657  2.8    0.077    0.107    0.077    0.107
 Vh_1c_gg_integrals                  73  8.0    0.008    0.089    0.087    0.099
 dbcsr_add_d                       2660  7.1    0.001    0.001    0.016    0.091
 dbcsr_add_anytype                 2660  8.1    0.002    0.011    0.015    0.090
 copy_fm_to_dbcsr                   148  8.1    0.000    0.000    0.087    0.089
 multiply_cannon_loop               181 10.1    0.005    0.006    0.050    0.083
 integrate_four_center_load          73 10.0    0.000    0.000    0.059    0.082
 hfx_load_balance                     1 11.0    0.000    0.000    0.059    0.081
 dbt_tas_multiply                     8 11.5    0.000    0.000    0.080    0.080
 dbt_tas_total                        8 12.5    0.001    0.004    0.080    0.080
 cp_fm_uplo_to_full                 182  8.4    0.053    0.080    0.053    0.080
 create_A                             1  8.0    0.002    0.003    0.078    0.079
 make_m2s                           362  9.1    0.003    0.003    0.064    0.078
 dbcsr_desymmetrize_deep            137  7.8    0.003    0.003    0.067    0.076
 create_B                             1  8.0    0.000    0.000    0.069    0.076
 fm_general_add_bse                   5 10.2    0.000    0.000    0.067    0.071
 parser_read_line                 25503  4.0    0.004    0.004    0.068    0.070
 self_consistency_check              72  5.0    0.000    0.000    0.050    0.069
 cp_sm_mix                           72  6.0    0.000    0.000    0.050    0.068
 mp_max_d                            74  6.9    0.049    0.068    0.049    0.068
 mp_sum_l                          1161  6.6    0.051    0.068    0.051    0.068
 dbcsr_finalize                    4588 10.7    0.006    0.018    0.026    0.067
 parser_read_line_low                38  5.0    0.002    0.020    0.064    0.067
 mp_alltoall_i11v                   986  9.4    0.066    0.067    0.066    0.067
 broadcast_input_information         38  6.0    0.006    0.007    0.063    0.065
 cp_fm_syrk                           3  7.0    0.063    0.065    0.063    0.065
 get_2c_integrals                     1  6.0    0.000    0.000    0.061    0.064
 fft_wrap_pw1pw2_10                 146 10.5    0.001    0.001    0.059    0.063
 dbcsr_col_vec_to_rep_row          1735  8.0    0.006    0.006    0.052    0.062
 pw_scale                           289  9.5    0.042    0.061    0.042    0.061
 multiply_cannon_metrocomm3        1644 11.1    0.002    0.002    0.021    0.059
 calculate_rho0_atom                292  9.0    0.056    0.058    0.056    0.058
 mp_irecv_dm3                      2646 11.5    0.013    0.054    0.013    0.054
 make_images                        362 10.1    0.007    0.007    0.035    0.049
 dbcsr_rep_row_to_rep_col_vec      1735  8.0    0.004    0.005    0.032    0.049
 mp_rank_compare                   1525 12.9    0.045    0.049    0.045    0.049
 postprocess_bse                      1  9.0    0.000    0.000    0.048    0.048
 qs_env_update_s_mstruct              1  4.0    0.000    0.000    0.048    0.048
 hfx_load_balance_range               1 12.0    0.000    0.000    0.025    0.047
 create_integ_mat                     4  6.0    0.001    0.001    0.045    0.046
 calculate_rho_core                   1  5.0    0.003    0.004    0.045    0.046
 scf_post_calculation_gpw             1  3.0    0.000    0.000    0.045    0.045
 write_available_results              1  4.0    0.000    0.000    0.045    0.045
 write_mo_free_results                1  5.0    0.004    0.005    0.045    0.045
 mp_bcast_i_src                     152  7.0    0.037    0.045    0.037    0.045
 mp_alltoall_i22                    420  9.3    0.034    0.044    0.034    0.044
 write_mo_set_to_restart             72  5.0    0.001    0.039    0.040    0.044
 array2fm                             4  7.0    0.000    0.000    0.041    0.044
 hybrid_alltoall_any                499 11.2    0.004    0.005    0.029    0.043
 mp_bcast_dv                       1735  9.0    0.034    0.041    0.034    0.041
 compute_2c_integrals                 1  7.0    0.000    0.000    0.028    0.041
 dbt_tas_dbm                          8 13.5    0.000    0.000    0.040    0.040
 write_mo_set_low                     4  6.0    0.000    0.000    0.038    0.039
 cp_fm_write_unformatted              4  7.0    0.038    0.039    0.038    0.039
 vxc_of_r_new                       288  9.0    0.000    0.006    0.002    0.038
 dbt_tas_mm_1N                        8 14.5    0.000    0.000    0.032    0.037
 dbm_multiply                         8 15.5    0.032    0.037    0.032    0.037
 cp_fm_symm                          73  7.0    0.033    0.036    0.033    0.036
 mp_comm_split_direct                48 14.5    0.022    0.036    0.022    0.036
 dbcsr_iterator_start             23641  9.0    0.019    0.027    0.023    0.035
 mp_irecv_dv                      12651 11.8    0.010    0.035    0.010    0.035
 abc_contract                      2536  9.0    0.014    0.035    0.014    0.035
 cholesky_decomp                      1  7.0    0.000    0.000    0.018    0.032
 sort_shells                          4  9.0    0.029    0.031    0.029    0.031
 multiply_cannon_metrocomm4        1463 11.1    0.002    0.003    0.005    0.031
 hfx_load_balance_redist              1 12.0    0.003    0.003    0.030    0.031
 mult_B_with_W                        1  8.0    0.000    0.000    0.029    0.030
 dbcsr_merge_all                   3557 11.4    0.009    0.022    0.014    0.030
 dbt_copy                            12 10.0    0.000    0.000    0.026    0.029
 mixing_init                          1  5.0    0.027    0.028    0.028    0.029
 mp2_main_free_hfx                    1  4.0    0.014    0.027    0.014    0.027
 mp_isendrecv_lv                    158 13.0    0.001    0.027    0.001    0.027
 Q_trace_and_add_unit_matrix        100  8.0    0.000    0.001    0.017    0.026
 dbt_tas_estimate_result_nze          4 12.0    0.000    0.003    0.024    0.024
 get_multipoles_mo                    1 10.0    0.000    0.000    0.023    0.024
 dbcsr_copy                        7847  7.7    0.013    0.014    0.022    0.024
 make_images_data                   362 11.1    0.002    0.003    0.009    0.023
 rs_scatter_matrices                 73  7.0    0.001    0.001    0.023    0.023
 dbcsr_work_create                 4364 10.6    0.005    0.015    0.008    0.023
 xc_pw_smooth                        72 10.0    0.000    0.000    0.022    0.023
 mp_bcast_am_src                     38  7.0    0.017    0.022    0.018    0.023
 fm_general_add_bse_1_setup           5 11.2    0.020    0.023    0.020    0.023
 dbt_reshape                          8 11.5    0.003    0.005    0.019    0.022
 mp_maxloc_dv                      1513  1.0    0.019    0.022    0.019    0.022
 hirshfeld_integration                1  6.0    0.001    0.007    0.021    0.021
 dbt_distribution_new_expert         76 10.1    0.001    0.001    0.021    0.021
 offload_free_buffer                 81  8.4    0.015    0.021    0.015    0.021
 array2fm_info                        4  8.0    0.019    0.020    0.019    0.020
 dbt_remap                            8 10.0    0.001    0.001    0.020    0.020
 mp_bcast_b_src                     151  7.5    0.011    0.019    0.011    0.019
 dbcsr_work_destroy_all            4364 11.5    0.004    0.014    0.006    0.019
 dbcsr_crop_matrix                  432 10.0    0.001    0.002    0.018    0.019
 dbcsr_create_new                 11081  9.2    0.013    0.013    0.017    0.018
 calculate_hirshfeld_normalizat       1  6.0    0.001    0.007    0.017    0.018
 mp_allgather_i34                   181 10.1    0.016    0.018    0.016    0.018
 get_oscillator_strengths             1 10.0    0.000    0.000    0.018    0.018
 dbcsr_iterator_stop              23641  9.0    0.011    0.015    0.013    0.018
 dbt_tas_distribution_new            92 11.7    0.009    0.010    0.017    0.018
 pw_grid_remap                        4  8.0    0.003    0.003    0.013    0.017
 mp_cart_sub                        274  8.9    0.016    0.016    0.016    0.016
 dbt_communicate_buffer               8 12.5    0.000    0.000    0.014    0.016
 fm_general_add_bse_5_comm_buff       5 11.2    0.000    0.000    0.011    0.016
 communicate_buffer                   5 12.2    0.000    0.000    0.011    0.016
 cp_fm_redistribute_start            78  8.0    0.000    0.000    0.010    0.016
 mp_waitall_2                        48 15.8    0.011    0.016    0.011    0.016
 multiply_cannon_metrocomm1        1644 11.1    0.001    0.001    0.003    0.015
 mp_sum_im3                           4  9.0    0.010    0.015    0.010    0.015
 pw_grid_assign                       4  8.0    0.013    0.014    0.014    0.015
 mp_sum_im                         4017 13.0    0.013    0.015    0.013    0.015
 calc_fm_mat_S_rpa                  100  9.0    0.002    0.014    0.002    0.014
 dbcsr_copy_submatrix               432 11.0    0.002    0.002    0.014    0.014
 multiply_cannon_multrec           1644 11.1    0.011    0.013    0.011    0.014
 array2fm_buffer_send                 4  8.0    0.013    0.013    0.013    0.013
 mp_bcast_av                        757  1.0    0.004    0.006    0.010    0.013
 fm_general_add_bse_4_buf_from_       1 10.0    0.012    0.013    0.012    0.013
 cp_dbcsr_sm_fm_multiply              3 11.0    0.000    0.000    0.013    0.013
 make_images_sizes                  362 11.1    0.000    0.000    0.011    0.013
 ao_to_mo_and_store_B_mult_bse_      13  7.0    0.000    0.000    0.010    0.013
 dbt_split_blocks_generic            20  8.8    0.002    0.002    0.013    0.013
 mp_alltoall_i44                    362 12.1    0.011    0.013    0.011    0.013
 fm_general_add_bse_4_buf_from_       1 10.0    0.012    0.013    0.012    0.013
 array2fm_fill                        4  8.0    0.003    0.003    0.007    0.012
 dbcsr_data_new                   42760 11.0    0.007    0.012    0.007    0.012
 dbt_tas_replicate                    8 13.5    0.003    0.004    0.011    0.012
 dbcsr_data_release               70730 10.6    0.007    0.012    0.007    0.012
 ao_to_mo_and_store_B_mult_gw_1      13  7.0    0.000    0.000    0.010    0.012
 dbt_tas_create_split                44 13.2    0.000    0.000    0.011    0.011
 dbt_tas_create_split_rows_or_c      44 14.2    0.000    0.000    0.011    0.011
 invert_mat                           1  7.0    0.000    0.000    0.009    0.011
 cp_fm_triangular_invert              1  8.0    0.009    0.011    0.009    0.011
 create_fast_col_vec_access        3470  8.0    0.006    0.007    0.010    0.011
 ao_to_mo_and_store_B_mult_1         13  7.0    0.000    0.000    0.009    0.011
 hfx_create                           1  2.0    0.009    0.010    0.009    0.011
 dbt_create_new                      40  9.5    0.000    0.000    0.010    0.010
 mp_sum_iv                          227  9.9    0.009    0.010    0.009    0.010
 create_fast_row_vec_access        3470  8.0    0.006    0.007    0.010    0.010
 mp_alltoall_i                       37 14.0    0.007    0.010    0.007    0.010
 get_fft_scratch                   1526 12.9    0.005    0.010    0.005    0.010
 mp_wait                             94  9.0    0.004    0.009    0.004    0.009
 dbt_nd_mp_comm                       8 11.0    0.000    0.000    0.004    0.009
 external_control                    73  5.0    0.000    0.006    0.009    0.009
 reshape_mm_small                     8 13.5    0.001    0.001    0.008    0.009
 -------------------------------------------------------------------------------

 The number of warnings for this run is : 1
 
 -------------------------------------------------------------------------------
  **** **** ******  **  PROGRAM ENDED AT                 2025-06-03 23:01:03.203
 ***** ** ***  *** **   PROGRAM RAN ON                                  n2cn0505
 **    ****   ******    PROGRAM RAN BY                                  metdyn02
 ***** **    ** ** **   PROGRAM PROCESS ID                               1872854
  **** **  *******  **  PROGRAM STOPPED IN /scratch/hpc-prf-metdyn/metdyn02_Remi
                                           /10_MOL/05_MOL/aUKBqsEOTmq69kFe5R_nOg
                                           /5k_set_final_qzvp/NUNKUC/SZVSR/GW+BS
                                           E/RILIM
