 DBCSR| CPU Multiplication driver                                           XSMM (U)
 DBCSR| Multrec recursion limit                                              512 (U)
 DBCSR| Multiplication stack size                                           1000 (D)
 DBCSR| Maximum elements for images                                    UNLIMITED (U)
 DBCSR| Multiplicative factor virtual images                                   1 (U)
 DBCSR| Use multiplication densification                                       T (D)
 DBCSR| Multiplication size stacks                                             3 (U)
 DBCSR| Use memory pool for CPU allocation                                     F (U)
 DBCSR| Number of 3D layers                                               SINGLE (U)
 DBCSR| Use MPI memory allocation                                              F (U)
 DBCSR| Use RMA algorithm                                                      F (U)
 DBCSR| Use Communication thread                                               T (U)
 DBCSR| Communication thread load                                             60 (D)
 DBCSR| MPI: My process id                                                     0
 DBCSR| MPI: Number of processes                                              32
 DBCSR| OMP: Current number of threads                                         8
 DBCSR| OMP: Max number of threads                                             8
 DBCSR| Split modifier for TAS multiplication algorithm                  1.0E+00 (U)


  **** **** ******  **  PROGRAM STARTED AT               2025-06-23 13:07:05.485
 ***** ** ***  *** **   PROGRAM STARTED ON                              n2cn0480
 **    ****   ******    PROGRAM STARTED BY                              metdyn02
 ***** **    ** ** **   PROGRAM PROCESS ID                                517207
  **** **  *******  **  PROGRAM STARTED IN /scratch/hpc-prf-metdyn/metdyn02_Remi
                                           /10_MOL/05_MOL/aUKBqsEOTmq69kFe5R_nOg
                                           /5k_set_final_qzvp/TIBPAW/mini-SZV/TD
                                           DFT/RILIM

 CP2K| version string:                 CP2K version 2025.1 (Development Version)
 CP2K| source code revision number:                                  git:32ddf85
 CP2K| cp2kflags: omp libint fftw3 libxc libgrpp elpa parallel scalapack mpi_f08
 CP2K|             cosma xsmm plumed2 spglib libvori libbqb libvdwxc hdf5
 CP2K| is freely available from                            https://www.cp2k.org/
 CP2K| Program compiled at                         Mon May 19 11:32:37 CEST 2025
 CP2K| Program compiled on                                              n2login1
 CP2K| Program compiled for                                                local
 CP2K| Data directory path    /opt/software/pc2/EB-SW/software/CP2K/2024.1-foss-
 CP2K| Input file name                                                    GW.inp

 GLOBAL| Force Environment number                                              1
 GLOBAL| Basis set file name            /scratch/hpc-prf-metdyn/metdyn02_Remi/BA
 GLOBAL| Potential file name            /pc2/groups/hpc-prf-metdyn/metdyn02_Remi
 GLOBAL| MM Potential file name                                     MM_POTENTIAL
 GLOBAL| Coordinate file name                                      __STD_INPUT__
 GLOBAL| Method name                                                        CP2K
 GLOBAL| Project name                                                       MoS2
 GLOBAL| Run type                                                         ENERGY
 GLOBAL| FFT library                                                       FFTW3
 GLOBAL| Diagonalization library                                            ELPA
 GLOBAL| Cholesky decomposition library                                ScaLAPACK
 GLOBAL| DGEMM library                                                      BLAS
 GLOBAL| Minimum number of eigenvectors for ELPA usage                        16
 GLOBAL| Orthonormality check for eigenvectors                          DISABLED
 GLOBAL| Matrix multiplication library                                     COSMA
 GLOBAL| All-to-all communication in single precision                          F
 GLOBAL| FFTs using library dependent lengths                                  F
 GLOBAL| Grid backend                                                       AUTO
 GLOBAL| Global print level                                               MEDIUM
 GLOBAL| MPI I/O enabled                                                       T
 GLOBAL| Total number of message passing processes                            32
 GLOBAL| Number of threads for this process                                    8
 GLOBAL| This output is from process                                           0
 GLOBAL| OpenMP stack size per thread (OMP_STACKSIZE)                    default
 GLOBAL| CPU model name                          AMD EPYC 7763 64-Core Processor
 GLOBAL| CPUID                                                              1002

 MEMORY| system memory details [Kb]
 MEMORY|                        rank 0           min           max       average
 MEMORY| MemTotal            263897576     263897560     263897612     263897584
 MEMORY| MemFree             251913632     251537560     252084600     251890316
 MEMORY| Buffers                123944         66444        124740        115907
 MEMORY| Cached                7113536       7057464       7391500       7177137
 MEMORY| Slab                  1319552       1319552       1514336       1363108
 MEMORY| SReclaimable           317536        314656        327996        318735
 MEMORY| MemLikelyFree       259468648     259323500     259578972     259502096


 *** Fundamental physical constants (SI units) ***

 *** Literature: B. J. Mohr and B. N. Taylor,
 ***             CODATA recommended values of the fundamental physical
 ***             constants: 2006, Web Version 5.1
 ***             http://physics.nist.gov/constants

 Speed of light in vacuum [m/s]                             2.99792458000000E+08
 Magnetic constant or permeability of vacuum [N/A**2]       1.25663706143592E-06
 Electric constant or permittivity of vacuum [F/m]          8.85418781762039E-12
 Planck constant (h) [J*s]                                  6.62606896000000E-34
 Planck constant (h-bar) [J*s]                              1.05457162825177E-34
 Elementary charge [C]                                      1.60217648700000E-19
 Electron mass [kg]                                         9.10938215000000E-31
 Electron g factor [ ]                                     -2.00231930436220E+00
 Proton mass [kg]                                           1.67262163700000E-27
 Fine-structure constant                                    7.29735253760000E-03
 Rydberg constant [1/m]                                     1.09737315685270E+07
 Avogadro constant [1/mol]                                  6.02214179000000E+23
 Boltzmann constant [J/K]                                   1.38065040000000E-23
 Atomic mass unit [kg]                                      1.66053878200000E-27
 Bohr radius [m]                                            5.29177208590000E-11

 *** Conversion factors ***

 [u] -> [a.u.]                                              1.82288848426455E+03
 [Angstrom] -> [Bohr] = [a.u.]                              1.88972613288564E+00
 [a.u.] = [Bohr] -> [Angstrom]                              5.29177208590000E-01
 [a.u.] -> [s]                                              2.41888432650478E-17
 [a.u.] -> [fs]                                             2.41888432650478E-02
 [a.u.] -> [J]                                              4.35974393937059E-18
 [a.u.] -> [N]                                              8.23872205491840E-08
 [a.u.] -> [K]                                              3.15774647902944E+05
 [a.u.] -> [kJ/mol]                                         2.62549961709828E+03
 [a.u.] -> [kcal/mol]                                       6.27509468713739E+02
 [a.u.] -> [Pa]                                             2.94210107994716E+13
 [a.u.] -> [bar]                                            2.94210107994716E+08
 [a.u.] -> [atm]                                            2.90362800883016E+08
 [a.u.] -> [eV]                                             2.72113838565563E+01
 [a.u.] -> [Hz]                                             6.57968392072181E+15
 [a.u.] -> [1/cm] (wave numbers)                            2.19474631370540E+05
 [a.u./Bohr**2] -> [1/cm]                                   5.14048714338585E+03
 

 CELL_TOP| Volume [angstrom^3]:                                     27000.000000
 CELL_TOP| Vector a [angstrom    30.000     0.000     0.000   |a| =    30.000000
 CELL_TOP| Vector b [angstrom     0.000    30.000     0.000   |b| =    30.000000
 CELL_TOP| Vector c [angstrom     0.000     0.000    30.000   |c| =    30.000000
 CELL_TOP| Angle (b,c), alpha [degree]:                                90.000000
 CELL_TOP| Angle (a,c), beta  [degree]:                                90.000000
 CELL_TOP| Angle (a,b), gamma [degree]:                                90.000000
 CELL_TOP| Numerically orthorhombic:                                         YES
 CELL_TOP| Periodicity                                                      NONE

 GENERATE|  Preliminary Number of Bonds generated:                             0
 GENERATE|  Achieved consistency in connectivity generation.

 CELL| Volume [angstrom^3]:                                         27000.000000
 CELL| Vector a [angstrom]:      30.000     0.000     0.000   |a| =    30.000000
 CELL| Vector b [angstrom]:       0.000    30.000     0.000   |b| =    30.000000
 CELL| Vector c [angstrom]:       0.000     0.000    30.000   |c| =    30.000000
 CELL| Angle (b,c), alpha [degree]:                                    90.000000
 CELL| Angle (a,c), beta  [degree]:                                    90.000000
 CELL| Angle (a,b), gamma [degree]:                                    90.000000
 CELL| Numerically orthorhombic:                                             YES
 CELL| Periodicity                                                          NONE

 CELL_REF| Volume [angstrom^3]:                                     27000.000000
 CELL_REF| Vector a [angstrom    30.000     0.000     0.000   |a| =    30.000000
 CELL_REF| Vector b [angstrom     0.000    30.000     0.000   |b| =    30.000000
 CELL_REF| Vector c [angstrom     0.000     0.000    30.000   |c| =    30.000000
 CELL_REF| Angle (b,c), alpha [degree]:                                90.000000
 CELL_REF| Angle (a,c), beta  [degree]:                                90.000000
 CELL_REF| Angle (a,b), gamma [degree]:                                90.000000
 CELL_REF| Numerically orthorhombic:                                         YES
 CELL_REF| Periodicity                                                      NONE

 *******************************************************************************
 *******************************************************************************
 **                                                                           **
 **     #####                         ##              ##                      **
 **    ##   ##            ##          ##              ##                      **
 **   ##     ##                       ##            ######                    **
 **   ##     ##  ##   ##  ##   #####  ##  ##   ####   ##    #####    #####    **
 **   ##     ##  ##   ##  ##  ##      ## ##   ##      ##   ##   ##  ##   ##   **
 **   ##  ## ##  ##   ##  ##  ##      ####     ###    ##   ######   ######    **
 **    ##  ###   ##   ##  ##  ##      ## ##      ##   ##   ##       ##        **
 **     #######   #####   ##   #####  ##  ##  ####    ##    #####   ##        **
 **           ##                                                    ##        **
 **                                                                           **
 **                                                ... make the atoms dance   **
 **                                                                           **
 **            Copyright (C) by CP2K developers group (2000-2025)             **
 **                      J. Chem. Phys. 152, 194103 (2020)                    **
 **                                                                           **
 *******************************************************************************

 DFT| Spin restricted Kohn-Sham (RKS) calculation                            RKS
 DFT| Multiplicity                                                             1
 DFT| Number of spin states                                                    1
 DFT| Charge                                                                   0
 DFT| Self-interaction correction (SIC)                                       NO
 DFT| Cutoffs: density                                              1.000000E-10
 DFT|          gradient                                             1.000000E-10
 DFT|          tau                                                  1.000000E-10
 DFT|          cutoff_smoothing_range                               0.000000E+00
 DFT| XC density smoothing                                                  NONE
 DFT| XC derivatives                                                          PW

 FUNCTIONAL| PBE:
 FUNCTIONAL| J.P.Perdew, K.Burke, M.Ernzerhof, Phys. Rev. Letter, vol. 77, n 18,
 FUNCTIONAL|  pp. 3865-3868, (1996)sx=0.750sc=1.000{spin unpolarized}           


 QS| Method:                                                                GAPW
 QS| Density plane wave grid type                        NON-SPHERICAL FULLSPACE
 QS| Number of grid levels:                                                    4
 QS| Density cutoff [a.u.]:                                                250.0
 QS| Multi grid cutoff [a.u.]: 1) grid level                               250.0
 QS|                           2) grid level                                83.3
 QS|                           3) grid level                                27.8
 QS|                           4) grid level                                 9.3
 QS| Grid level progression factor:                                          3.0
 QS| Relative density cutoff [a.u.]:                                        50.0
 QS| Interaction thresholds: eps_pgf_orb:                                1.0E-12
 QS|                         eps_filter_matrix:                          0.0E+00
 QS|                         eps_core_charge:                            1.0E-14
 QS|                         eps_rho_gspace:                             1.0E-12
 QS|                         eps_rho_rspace:                             1.0E-12
 QS|                         eps_gvg_rspace:                             1.0E-06
 QS|                         eps_ppl:                                    1.0E-02
 QS|                         eps_ppnl:                                   1.0E-08
 QS| GAPW|      One center basis from orbital basis primitives
 QS| GAPW|                   eps_fit:                                    1.0E-04
 QS| GAPW|                   eps_iso:                                    1.0E-12
 QS| GAPW|                   eps_svd:                                    1.0E-08
 QS| GAPW|                   eps_cpc:                                    1.0E-12
 QS| GAPW|   atom-r-grid: quadrature:                                     GC_LOG
 QS| GAPW|      atom-s-grid:  max l :                                          2
 QS| GAPW|      max_l_rho0 :                                                   2


 ATOMIC KIND INFORMATION

  1. Atomic kind: S                                     Number of atoms:       1

     Orbital Basis Set                                    aug-SZV-MOLOPT-ae-mini

       Number of orbital shell sets:                                           3
       Number of orbital shells:                                               7
       Number of primitive Cartesian functions:                               10
       Number of Cartesian basis functions:                                   13
       Number of spherical basis functions:                                   13
       Norm type:                                                              2

       Normalised Cartesian orbitals:

                        Set   Shell   Orbital            Exponent    Coefficient

                          1       1    1s                2.029194      -0.266118
                                                         0.566140       0.104938
                                                         0.221583       0.207251
                                                         0.100000       0.000000

                          1       2    2s                2.029194       0.000000
                                                         0.566140       0.204121
                                                         0.221583      -0.309021
                                                         0.100000      -0.000667

                          1       3    2px               2.029194       0.036552
                                                         0.566140       0.416614
                                                         0.221583       0.100116
                                                         0.100000       0.000000
                          1       3    2py               2.029194       0.036552
                                                         0.566140       0.416614
                                                         0.221583       0.100116
                                                         0.100000       0.000000
                          1       3    2pz               2.029194       0.036552
                                                         0.566140       0.416614
                                                         0.221583       0.100116
                                                         0.100000       0.000000

                          1       4    3px               2.029194       0.000000
                                                         0.566140      -0.277816
                                                         0.221583      -0.031781
                                                         0.100000       0.095870
                          1       4    3py               2.029194       0.000000
                                                         0.566140      -0.277816
                                                         0.221583      -0.031781
                                                         0.100000       0.095870
                          1       4    3pz               2.029194       0.000000
                                                         0.566140      -0.277816
                                                         0.221583      -0.031781
                                                         0.100000       0.095870

                          2       1    1s               33.329752      -0.988305
                                                         7.745118       1.321941
                                                         2.518953       0.997688

                          2       2    2px              33.329752      17.797990
                                                         7.745118      11.191879
                                                         2.518953       1.772979
                          2       2    2py              33.329752      17.797990
                                                         7.745118      11.191879
                                                         2.518953       1.772979
                          2       2    2pz              33.329752      17.797990
                                                         7.745118      11.191879
                                                         2.518953       1.772979

                          3       1    1s              533.125730      12.203369
                                                        97.109510      11.802561
                                                        26.281620       3.678347

     RI Auxiliary Basis Set             RI_aug-SZV-MOLOPT-ae-mini_N_RI_042_s_p_d

       Number of orbital shell sets:                                          16
       Number of orbital shells:                                              16
       Number of primitive Cartesian functions:                               16
       Number of Cartesian basis functions:                                   46
       Number of spherical basis functions:                                   42
       Norm type:                                                              2

       Normalised Cartesian orbitals:

                        Set   Shell   Orbital            Exponent    Coefficient

                          1       1   13dx2              0.250000       0.145480
                          1       1   13dxy              0.250000       0.251979
                          1       1   13dxz              0.250000       0.251979
                          1       1   13dy2              0.250000       0.145480
                          1       1   13dyz              0.250000       0.251979
                          1       1   13dz2              0.250000       0.145480

                          2       1    1s                0.250000       0.251979

                          3       1    8px               0.250000       0.251979
                          3       1    8py               0.250000       0.251979
                          3       1    8pz               0.250000       0.251979

                          4       1    2s                0.385904       0.348955

                          5       1    9px               0.479455       0.568689
                          5       1    9py               0.479455       0.568689
                          5       1    9pz               0.479455       0.568689

                          6       1    3s                0.595686       0.483251

                          7       1   14dx2              0.595686       0.664798
                          7       1   14dxy              0.595686       1.151465
                          7       1   14dxz              0.595686       1.151465
                          7       1   14dy2              0.595686       0.664798
                          7       1   14dyz              0.595686       1.151465
                          7       1   14dz2              0.595686       0.664798

                          8       1    4s                0.919509       0.669233

                          9       1   10px               0.919509       1.283469
                          9       1   10py               0.919509       1.283469
                          9       1   10pz               0.919509       1.283469

                         10       1   15dx2              1.419368       3.037914
                         10       1   15dxy              1.419368       5.261822
                         10       1   15dxz              1.419368       5.261822
                         10       1   15dy2              1.419368       3.037914
                         10       1   15dyz              1.419368       5.261822
                         10       1   15dz2              1.419368       3.037914

                         11       1    5s                1.419368       0.926790

                         12       1   11px               1.763454       2.896646
                         12       1   11py               1.763454       2.896646
                         12       1   11pz               1.763454       2.896646

                         13       1    6s                2.190956       1.283469

                         14       1   16dx2              3.381990      13.882287
                         14       1   16dxy              3.381990      24.044826
                         14       1   16dxz              3.381990      24.044826
                         14       1   16dy2              3.381990      13.882287
                         14       1   16dyz              3.381990      24.044826
                         14       1   16dz2              3.381990      13.882287

                         15       1    7s                3.381990       1.777417

                         16       1   12px               3.381990       6.537406
                         16       1   12py               3.381990       6.537406
                         16       1   12pz               3.381990       6.537406

       Atomic covalent radius [Angstrom]:                                  1.020

       Atomic van der Waals radius [Angstrom]:                             1.800

     The atoms of this atomic kind are PAW atoms (GAPW):
       Hard Gaussian function radius:                                      1.512
       Rho0 radius:                                                        1.512
       Maximum GTO radius used for PAW projector construction:            24.566

     GAPW Soft Basis Set                             aug-SZV-MOLOPT-ae-mini_soft

       Number of orbital shell sets:                                           3
       Number of orbital shells:                                               7
       Number of primitive Cartesian functions:                                5
       Number of Cartesian basis functions:                                   13
       Number of spherical basis functions:                                   13
       Norm type:                                                              2

       Normalised Cartesian orbitals:

                        Set   Shell   Orbital            Exponent    Coefficient

                          1       1    1s                2.029194      -0.266118
                                                         0.566140       0.104938
                                                         0.221583       0.207251
                                                         0.100000       0.000000

                          1       2    2s                2.029194       0.000000
                                                         0.566140       0.204121
                                                         0.221583      -0.309021
                                                         0.100000      -0.000667

                          1       3    2px               2.029194       0.036552
                                                         0.566140       0.416614
                                                         0.221583       0.100116
                                                         0.100000       0.000000
                          1       3    2py               2.029194       0.036552
                                                         0.566140       0.416614
                                                         0.221583       0.100116
                                                         0.100000       0.000000
                          1       3    2pz               2.029194       0.036552
                                                         0.566140       0.416614
                                                         0.221583       0.100116
                                                         0.100000       0.000000

                          1       4    3px               2.029194       0.000000
                                                         0.566140      -0.277816
                                                         0.221583      -0.031781
                                                         0.100000       0.095870
                          1       4    3py               2.029194       0.000000
                                                         0.566140      -0.277816
                                                         0.221583      -0.031781
                                                         0.100000       0.095870
                          1       4    3pz               2.029194       0.000000
                                                         0.566140      -0.277816
                                                         0.221583      -0.031781
                                                         0.100000       0.095870

                          2       1    1s                2.518953       0.997688

                          2       2    2px               2.518953       1.772979
                          2       2    2py               2.518953       1.772979
                          2       2    2pz               2.518953       1.772979

                          3       1    1s         

     AE Potential information for                                            ALL

       Description:                                       All-electron potential
                                          Krack, Parrinello, PCCP 2, 2105 (2000)

       Gaussian exponent of the core charge distribution:               2.834467
       Electronic configuration (s p d ...):                           6  10   0

  2. Atomic kind: O                                     Number of atoms:       4

     Orbital Basis Set                                    aug-SZV-MOLOPT-ae-mini

       Number of orbital shell sets:                                           2
       Number of orbital shells:                                               5
       Number of primitive Cartesian functions:                                7
       Number of Cartesian basis functions:                                    9
       Number of spherical basis functions:                                    9
       Norm type:                                                              2

       Normalised Cartesian orbitals:

                        Set   Shell   Orbital            Exponent    Coefficient

                          1       1    1s                0.162491       0.000000
                                                         0.380388       0.241685
                                                         1.169596       0.320234
                                                         5.033151      -0.239413

                          1       2    2s                0.162491       0.289618
                                                         0.380388      -0.257800
                                                         1.169596      -0.000000
                                                         5.033151      -0.000284

                          1       3    2px               0.162491       0.000000
                                                         0.380388       0.166902
                                                         1.169596       1.053568
                                                         5.033151       1.675450
                          1       3    2py               0.162491       0.000000
                                                         0.380388       0.166902
                                                         1.169596       1.053568
                                                         5.033151       1.675450
                          1       3    2pz               0.162491       0.000000
                                                         0.380388       0.166902
                                                         1.169596       1.053568
                                                         5.033151       1.675450

                          1       4    3px               0.162491       0.166510
                                                         0.380388      -0.081234
                                                         1.169596      -0.994066
                                                         5.033151       0.014231
                          1       4    3py               0.162491       0.166510
                                                         0.380388      -0.081234
                                                         1.169596      -0.994066
                                                         5.033151       0.014231
                          1       4    3pz               0.162491       0.166510
                                                         0.380388      -0.081234
                                                         1.169596      -0.994066
                                                         5.033151       0.014231

                          2       1    1s              130.709321       4.251922
                                                        23.808866       4.112298
                                                         6.443608       1.281622

     RI Auxiliary Basis Set             RI_aug-SZV-MOLOPT-ae-mini_N_RI_047_s_p_d

       Number of orbital shell sets:                                          17
       Number of orbital shells:                                              17
       Number of primitive Cartesian functions:                               17
       Number of Cartesian basis functions:                                   52
       Number of spherical basis functions:                                   47
       Norm type:                                                              2

       Normalised Cartesian orbitals:

                        Set   Shell   Orbital            Exponent    Coefficient

                          1       1    1s                0.406227       0.362649

                          2       1    8px               0.406227       0.462276
                          2       1    8py               0.406227       0.462276
                          2       1    8pz               0.406227       0.462276

                          3       1   13dx2              0.406228       0.340217
                          3       1   13dxy              0.406228       0.589273
                          3       1   13dxz              0.406228       0.589273
                          3       1   13dy2              0.406228       0.340217
                          3       1   13dyz              0.406228       0.589273
                          3       1   13dz2              0.406228       0.340217

                          4       1    2s                0.672857       0.529483

                          5       1    9px               0.865963       1.190732
                          5       1    9py               0.865963       1.190732
                          5       1    9pz               0.865963       1.190732

                          6       1   14dx2              0.865963       1.279479
                          6       1   14dxy              0.865963       2.216122
                          6       1   14dxz              0.865963       2.216122
                          6       1   14dy2              0.865963       1.279479
                          6       1   14dyz              0.865963       2.216122
                          6       1   14dz2              0.865963       1.279479

                          7       1    3s                1.114489       0.773067

                          8       1    4s                1.845989       1.128709

                          9       1   10px               1.845989       3.067089
                          9       1   10py               1.845989       3.067089
                          9       1   10pz               1.845989       3.067089

                         10       1   15dx2              1.845989       4.811830
                         10       1   15dxy              1.845989       8.334333
                         10       1   15dxz              1.845989       8.334333
                         10       1   15dy2              1.845989       4.811830
                         10       1   15dyz              1.845989       8.334333
                         10       1   15dz2              1.845989       4.811830

                         11       1    5s                3.057611       1.647960

                         12       1   11px               3.935128       7.900211
                         12       1   11py               3.935128       7.900211
                         12       1   11pz               3.935128       7.900211

                         13       1   16dx2              3.935128      18.096203
                         13       1   16dxy              3.935128      31.343543
                         13       1   16dxz              3.935128      31.343543
                         13       1   16dy2              3.935128      18.096203
                         13       1   16dyz              3.935128      31.343543
                         13       1   16dz2              3.935128      18.096203

                         14       1    6s                5.064487       2.406089

                         15       1    7s                8.388585       3.512988

                         16       1   12px               8.388585      20.349370
                         16       1   12py               8.388585      20.349370
                         16       1   12pz               8.388585      20.349370

                         17       1   17dx2              8.388585      68.055730
                         17       1   17dxy              8.388585     117.875982
                         17       1   17dxz              8.388585     117.875982
                         17       1   17dy2              8.388585      68.055730
                         17       1   17dyz              8.388585     117.875982
                         17       1   17dz2              8.388585      68.055730

       Atomic covalent radius [Angstrom]:                                  0.730

       Atomic van der Waals radius [Angstrom]:                             1.520

     The atoms of this atomic kind are PAW atoms (GAPW):
       Hard Gaussian function radius:                                      1.512
       Rho0 radius:                                                        1.512
       Maximum GTO radius used for PAW projector construction:            24.566

     GAPW Soft Basis Set                             aug-SZV-MOLOPT-ae-mini_soft

       Number of orbital shell sets:                                           2
       Number of orbital shells:                                               5
       Number of primitive Cartesian functions:                                3
       Number of Cartesian basis functions:                                    9
       Number of spherical basis functions:                                    9
       Norm type:                                                              2

       Normalised Cartesian orbitals:

                        Set   Shell   Orbital            Exponent    Coefficient

                          1       1    1s                0.162491       0.000000
                                                         0.380388       0.241685
                                                         1.169596       0.320234

                          1       2    2s                0.162491       0.289618
                                                         0.380388      -0.257800
                                                         1.169596      -0.000000

                          1       3    2px               0.162491       0.000000
                                                         0.380388       0.166902
                                                         1.169596       1.053568
                          1       3    2py               0.162491       0.000000
                                                         0.380388       0.166902
                                                         1.169596       1.053568
                          1       3    2pz               0.162491       0.000000
                                                         0.380388       0.166902
                                                         1.169596       1.053568

                          1       4    3px               0.162491       0.166510
                                                         0.380388      -0.081234
                                                         1.169596      -0.994066
                          1       4    3py               0.162491       0.166510
                                                         0.380388      -0.081234
                                                         1.169596      -0.994066
                          1       4    3pz               0.162491       0.166510
                                                         0.380388      -0.081234
                                                         1.169596      -0.994066

                          2       1    1s         

     AE Potential information for                                            ALL

       Description:                                       All-electron potential
                                          Krack, Parrinello, PCCP 2, 2105 (2000)

       Gaussian exponent of the core charge distribution:               8.154466
       Electronic configuration (s p d ...):                           4   4   0

  3. Atomic kind: N                                     Number of atoms:       2

     Orbital Basis Set                                    aug-SZV-MOLOPT-ae-mini

       Number of orbital shell sets:                                           2
       Number of orbital shells:                                               5
       Number of primitive Cartesian functions:                                7
       Number of Cartesian basis functions:                                    9
       Number of spherical basis functions:                                    9
       Norm type:                                                              2

       Normalised Cartesian orbitals:

                        Set   Shell   Orbital            Exponent    Coefficient

                          1       1    1s                0.112012       0.000000
                                                         0.285714       0.194997
                                                         0.878496       0.258372
                                                         3.780455      -0.193164

                          1       2    2s                0.112012      -0.247059
                                                         0.285714       0.355178
                                                         0.878496       0.105643
                                                         3.780455      -0.000189

                          1       3    2px               0.112012       0.000000
                                                         0.285714       0.116706
                                                         0.878496       0.736703
                                                         3.780455       1.171552
                          1       3    2py               0.112012       0.000000
                                                         0.285714       0.116706
                                                         0.878496       0.736703
                                                         3.780455       1.171552
                          1       3    2pz               0.112012       0.000000
                                                         0.285714       0.116706
                                                         0.878496       0.736703
                                                         3.780455       1.171552

                          1       4    3px               0.112012       0.096580
                                                         0.285714      -0.017996
                                                         0.878496       0.000162
                                                         3.780455       0.000013
                          1       4    3py               0.112012       0.096580
                                                         0.285714      -0.017996
                                                         0.878496       0.000162
                                                         3.780455       0.000013
                          1       4    3pz               0.112012       0.096580
                                                         0.285714      -0.017996
                                                         0.878496       0.000162
                                                         3.780455       0.000013

                          2       1    1s               99.106168       3.454863
                                                        18.052312       3.341413
                                                         4.885660       1.041372

     RI Auxiliary Basis Set             RI_aug-SZV-MOLOPT-ae-mini_N_RI_047_s_p_d

       Number of orbital shell sets:                                          17
       Number of orbital shells:                                              17
       Number of primitive Cartesian functions:                               17
       Number of Cartesian basis functions:                                   52
       Number of spherical basis functions:                                   47
       Norm type:                                                              2

       Normalised Cartesian orbitals:

                        Set   Shell   Orbital            Exponent    Coefficient

                          1       1    1s                0.280030       0.274355

                          2       1    8px               0.280030       0.290366
                          2       1    8py               0.280030       0.290366
                          2       1    8pz               0.280030       0.290366

                          3       1   13dx2              0.280030       0.177426
                          3       1   13dxy              0.280030       0.307311
                          3       1   13dxz              0.280030       0.307311
                          3       1   13dy2              0.280030       0.177426
                          3       1   13dyz              0.280030       0.307311
                          3       1   13dz2              0.280030       0.177426

                          4       1    2s                0.470510       0.404890

                          5       1    9px               0.609890       0.768254
                          5       1    9py               0.609890       0.768254
                          5       1    9pz               0.609890       0.768254

                          6       1   14dx2              0.609890       0.692787
                          6       1   14dxy              0.609890       1.199942
                          6       1   14dxz              0.609890       1.199942
                          6       1   14dy2              0.609890       0.692787
                          6       1   14dyz              0.609890       1.199942
                          6       1   14dz2              0.609890       0.692787

                          7       1    3s                0.790558       0.597531

                          8       1    4s                1.328308       0.881828

                          9       1   15dx2              1.328308       2.705093
                          9       1   15dxy              1.328308       4.685358
                          9       1   15dxz              1.328308       4.685358
                          9       1   15dy2              1.328308       2.705093
                          9       1   15dyz              1.328308       4.685358
                          9       1   15dz2              1.328308       2.705093

                         10       1   10px               1.328308       2.032654
                         10       1   10py               1.328308       2.032654
                         10       1   10pz               1.328308       2.032654

                         11       1    5s                2.231842       1.301391

                         12       1   11px               2.892982       5.378018
                         12       1   11py               2.892982       5.378018
                         12       1   11pz               2.892982       5.378018

                         13       1   16dx2              2.892982      10.562447
                         13       1   16dxy              2.892982      18.294694
                         13       1   16dxz              2.892982      18.294694
                         13       1   16dy2              2.892982      10.562447
                         13       1   16dyz              2.892982      18.294694
                         13       1   16dz2              2.892982      10.562447

                         14       1    6s                3.749973       1.920575

                         15       1   17dx2              6.300758      41.242682
                         15       1   17dxy              6.300758      71.434420
                         15       1   17dxz              6.300758      71.434420
                         15       1   17dy2              6.300758      41.242682
                         15       1   17dyz              6.300758      71.434420
                         15       1   17dz2              6.300758      41.242682

                         16       1    7s                6.300758       2.834358

                         17       1   12px               6.300758      14.229221
                         17       1   12py               6.300758      14.229221
                         17       1   12pz               6.300758      14.229221

       Atomic covalent radius [Angstrom]:                                  0.750

       Atomic van der Waals radius [Angstrom]:                             1.550

     The atoms of this atomic kind are PAW atoms (GAPW):
       Hard Gaussian function radius:                                      1.512
       Rho0 radius:                                                        1.512
       Maximum GTO radius used for PAW projector construction:            24.566

     GAPW Soft Basis Set                             aug-SZV-MOLOPT-ae-mini_soft

       Number of orbital shell sets:                                           2
       Number of orbital shells:                                               5
       Number of primitive Cartesian functions:                                4
       Number of Cartesian basis functions:                                    9
       Number of spherical basis functions:                                    9
       Norm type:                                                              2

       Normalised Cartesian orbitals:

                        Set   Shell   Orbital            Exponent    Coefficient

                          1       1    1s                0.112012       0.000000
                                                         0.285714       0.194997
                                                         0.878496       0.258372
                                                         3.780455      -0.193164

                          1       2    2s                0.112012      -0.247059
                                                         0.285714       0.355178
                                                         0.878496       0.105643
                                                         3.780455      -0.000189

                          1       3    2px               0.112012       0.000000
                                                         0.285714       0.116706
                                                         0.878496       0.736703
                                                         3.780455       1.171552
                          1       3    2py               0.112012       0.000000
                                                         0.285714       0.116706
                                                         0.878496       0.736703
                                                         3.780455       1.171552
                          1       3    2pz               0.112012       0.000000
                                                         0.285714       0.116706
                                                         0.878496       0.736703
                                                         3.780455       1.171552

                          1       4    3px               0.112012       0.096580
                                                         0.285714      -0.017996
                                                         0.878496       0.000162
                                                         3.780455       0.000013
                          1       4    3py               0.112012       0.096580
                                                         0.285714      -0.017996
                                                         0.878496       0.000162
                                                         3.780455       0.000013
                          1       4    3pz               0.112012       0.096580
                                                         0.285714      -0.017996
                                                         0.878496       0.000162
                                                         3.780455       0.000013

                          2       1    1s         

     AE Potential information for                                            ALL

       Description:                                       All-electron potential
                                          Krack, Parrinello, PCCP 2, 2105 (2000)

       Gaussian exponent of the core charge distribution:               5.979100
       Electronic configuration (s p d ...):                           4   3   0

  4. Atomic kind: C                                     Number of atoms:       6

     Orbital Basis Set                                    aug-SZV-MOLOPT-ae-mini

       Number of orbital shell sets:                                           2
       Number of orbital shells:                                               5
       Number of primitive Cartesian functions:                                7
       Number of Cartesian basis functions:                                    9
       Number of spherical basis functions:                                    9
       Norm type:                                                              2

       Normalised Cartesian orbitals:

                        Set   Shell   Orbital            Exponent    Coefficient

                          1       1    2s                0.114558       0.000000
                                                         0.222289       0.161536
                                                         0.683483       0.214036
                                                         2.941249      -0.160017

                          1       2    3s                0.114558       0.000272
                                                         0.222289       0.256636
                                                         0.683483      -0.079244
                                                         2.941249       0.000032

                          1       3    3px               0.114558       0.000000
                                                         0.222289       0.085276
                                                         0.683483       0.538304
                                                         2.941249       0.856044
                          1       3    3py               0.114558       0.000000
                                                         0.222289       0.085276
                                                         0.683483       0.538304
                                                         2.941249       0.856044
                          1       3    3pz               0.114558       0.000000
                                                         0.222289       0.085276
                                                         0.683483       0.538304
                                                         2.941249       0.856044

                          1       4    4px               0.114558      -0.035043
                                                         0.222289      -0.159067
                                                         0.683483       0.106927
                                                         2.941249      -0.036832
                          1       4    4py               0.114558      -0.035043
                                                         0.222289      -0.159067
                                                         0.683483       0.106927
                                                         2.941249      -0.036832
                          1       4    4pz               0.114558      -0.035043
                                                         0.222289      -0.159067
                                                         0.683483       0.106927
                                                         2.941249      -0.036832

                          2       1    1s               71.616837       2.707801
                                                        13.045096       2.618883
                                                         3.530512       0.816191

     RI Auxiliary Basis Set             RI_aug-SZV-MOLOPT-ae-mini_N_RI_055_s_p_d

       Number of orbital shell sets:                                          19
       Number of orbital shells:                                              19
       Number of primitive Cartesian functions:                               19
       Number of Cartesian basis functions:                                   61
       Number of spherical basis functions:                                   55
       Norm type:                                                              2

       Normalised Cartesian orbitals:

                        Set   Shell   Orbital            Exponent    Coefficient

                          1       1    1s                0.286395       0.279019

                          2       1    8px               0.286395       0.298639
                          2       1    8py               0.286395       0.298639
                          2       1    8pz               0.286395       0.298639

                          3       1   14dx2              0.286395       0.184544
                          3       1   14dxy              0.286395       0.319639
                          3       1   14dxz              0.286395       0.319639
                          3       1   14dy2              0.286395       0.184544
                          3       1   14dyz              0.286395       0.319639
                          3       1   14dz2              0.286395       0.184544

                          4       1    2s                0.459764       0.397934

                          5       1    9px               0.505415       0.607436
                          5       1    9py               0.505415       0.607436
                          5       1    9pz               0.505415       0.607436

                          6       1   15dx2              0.505415       0.498648
                          6       1   15dxy              0.505415       0.863684
                          6       1   15dxz              0.505415       0.863684
                          6       1   15dy2              0.505415       0.498648
                          6       1   15dyz              0.505415       0.863684
                          6       1   15dz2              0.505415       0.498648

                          7       1    3s                0.738081       0.567529

                          8       1   10px               0.891931       1.235533
                          8       1   10py               0.891931       1.235533
                          8       1   10pz               0.891931       1.235533

                          9       1   16dx2              0.891931       1.347378
                          9       1   16dxy              0.891931       2.333728
                          9       1   16dxz              0.891931       2.333728
                          9       1   16dy2              0.891931       1.347378
                          9       1   16dyz              0.891931       2.333728
                          9       1   16dz2              0.891931       1.347378

                         10       1    4s                1.184876       0.809403

                         11       1   11px               1.574035       2.513091
                         11       1   11py               1.574035       2.513091
                         11       1   11pz               1.574035       2.513091

                         12       1   17dx2              1.574035       3.640699
                         12       1   17dxy              1.574035       6.305876
                         12       1   17dxz              1.574035       6.305876
                         12       1   17dy2              1.574035       3.640699
                         12       1   17dyz              1.574035       6.305876
                         12       1   17dz2              1.574035       3.640699

                         13       1    5s                1.902139       1.154361

                         14       1   12px               2.777778       5.111660
                         14       1   12py               2.777778       5.111660
                         14       1   12pz               2.777778       5.111660

                         15       1   18dx2              2.777778       9.837395
                         15       1   18dxy              2.777778      17.038868
                         15       1   18dxz              2.777778      17.038868
                         15       1   18dy2              2.777778       9.837395
                         15       1   18dyz              2.777778      17.038868
                         15       1   18dz2              2.777778       9.837395

                         16       1    6s                3.053594       1.646337

                         17       1    7s                4.902082       2.347986

                         18       1   13px               4.902082      10.397185
                         18       1   13py               4.902082      10.397185
                         18       1   13pz               4.902082      10.397185

                         19       1   19dx2              4.902082      26.581250
                         19       1   19dxy              4.902082      46.040076
                         19       1   19dxz              4.902082      46.040076
                         19       1   19dy2              4.902082      26.581250
                         19       1   19dyz              4.902082      46.040076
                         19       1   19dz2              4.902082      26.581250

       Atomic covalent radius [Angstrom]:                                  0.770

       Atomic van der Waals radius [Angstrom]:                             1.700

     The atoms of this atomic kind are PAW atoms (GAPW):
       Hard Gaussian function radius:                                      1.512
       Rho0 radius:                                                        1.512
       Maximum GTO radius used for PAW projector construction:            24.566

     GAPW Soft Basis Set                             aug-SZV-MOLOPT-ae-mini_soft

       Number of orbital shell sets:                                           2
       Number of orbital shells:                                               5
       Number of primitive Cartesian functions:                                5
       Number of Cartesian basis functions:                                    9
       Number of spherical basis functions:                                    9
       Norm type:                                                              2

       Normalised Cartesian orbitals:

                        Set   Shell   Orbital            Exponent    Coefficient

                          1       1    2s                0.114558       0.000000
                                                         0.222289       0.161536
                                                         0.683483       0.214036
                                                         2.941249      -0.160017

                          1       2    3s                0.114558       0.000272
                                                         0.222289       0.256636
                                                         0.683483      -0.079244
                                                         2.941249       0.000032

                          1       3    3px               0.114558       0.000000
                                                         0.222289       0.085276
                                                         0.683483       0.538304
                                                         2.941249       0.856044
                          1       3    3py               0.114558       0.000000
                                                         0.222289       0.085276
                                                         0.683483       0.538304
                                                         2.941249       0.856044
                          1       3    3pz               0.114558       0.000000
                                                         0.222289       0.085276
                                                         0.683483       0.538304
                                                         2.941249       0.856044

                          1       4    4px               0.114558      -0.035043
                                                         0.222289      -0.159067
                                                         0.683483       0.106927
                                                         2.941249      -0.036832
                          1       4    4py               0.114558      -0.035043
                                                         0.222289      -0.159067
                                                         0.683483       0.106927
                                                         2.941249      -0.036832
                          1       4    4pz               0.114558      -0.035043
                                                         0.222289      -0.159067
                                                         0.683483       0.106927
                                                         2.941249      -0.036832

                          2       1    1s                3.530512       0.816191

     AE Potential information for                                            ALL

       Description:                                       All-electron potential
                                          Krack, Parrinello, PCCP 2, 2105 (2000)

       Gaussian exponent of the core charge distribution:               4.109048
       Electronic configuration (s p d ...):                           4   2   0

  5. Atomic kind: H                                     Number of atoms:       6

     Orbital Basis Set                                    aug-SZV-MOLOPT-ae-mini

       Number of orbital shell sets:                                           1
       Number of orbital shells:                                               4
       Number of primitive Cartesian functions:                                7
       Number of Cartesian basis functions:                                    6
       Number of spherical basis functions:                                    6
       Norm type:                                                              2

       Normalised Cartesian orbitals:

                        Set   Shell   Orbital            Exponent    Coefficient

                          1       1    1s                0.065428       0.000000
                                                         0.100112       0.016532
                                                         0.243077       0.102760
                                                         0.625955       0.185857
                                                         1.822143       0.188385
                                                         6.513144       0.143430
                                                        35.523221       0.095030

                          1       2    2s                0.065428       0.083549
                                                         0.100112       0.009605
                                                         0.243077       0.002524
                                                         0.625955       0.013457
                                                         1.822143       0.000000
                                                         6.513144       0.000000
                                                        35.523221       0.000000

                          1       3    3s                0.065428       0.037407
                                                         0.100112      -0.169070
                                                         0.243077      -0.018899
                                                         0.625955       0.012806
                                                         1.822143       0.000000
                                                         6.513144       0.000000
                                                        35.523221       0.000000

                          1       4    2px               0.065428       0.059908
                                                         0.100112      -0.023770
                                                         0.243077       0.000032
                                                         0.625955       0.017779
                                                         1.822143       0.000000
                                                         6.513144       0.000000
                                                        35.523221       0.000000
                          1       4    2py               0.065428       0.059908
                                                         0.100112      -0.023770
                                                         0.243077       0.000032
                                                         0.625955       0.017779
                                                         1.822143       0.000000
                                                         6.513144       0.000000
                                                        35.523221       0.000000
                          1       4    2pz               0.065428       0.059908
                                                         0.100112      -0.023770
                                                         0.243077       0.000032
                                                         0.625955       0.017779
                                                         1.822143       0.000000
                                                         6.513144       0.000000
                                                        35.523221       0.000000

     RI Auxiliary Basis Set             RI_aug-SZV-MOLOPT-ae_N_RI_035_s_p_d_f_g_

       Number of orbital shell sets:                                          15
       Number of orbital shells:                                              15
       Number of primitive Cartesian functions:                               15
       Number of Cartesian basis functions:                                   37
       Number of spherical basis functions:                                   35
       Norm type:                                                              2

       Normalised Cartesian orbitals:

                        Set   Shell   Orbital            Exponent    Coefficient

                          1       1    1s                0.236911       0.242019

                          2       1    8px               0.347892       0.380843
                          2       1    8py               0.347892       0.380843
                          2       1    8pz               0.347892       0.380843

                          3       1    2s                0.423897       0.374417

                          4       1    9px               0.493166       0.589089
                          4       1    9py               0.493166       0.589089
                          4       1    9pz               0.493166       0.589089

                          5       1   14dx2              0.625366       0.723843
                          5       1   14dxy              0.625366       1.253733
                          5       1   14dxz              0.625366       1.253733
                          5       1   14dy2              0.625366       0.723843
                          5       1   14dyz              0.625366       1.253733
                          5       1   14dz2              0.625366       0.723843

                          6       1   10px               0.699103       0.911206
                          6       1   10py               0.699103       0.911206
                          6       1   10pz               0.699103       0.911206

                          7       1    3s                0.758464       0.579244

                          8       1   11px               0.991036       1.409457
                          8       1   11py               0.991036       1.409457
                          8       1   11pz               0.991036       1.409457

                          9       1   15dx2              1.286053       2.556305
                          9       1   15dxy              1.286053       4.427650
                          9       1   15dxz              1.286053       4.427650
                          9       1   15dy2              1.286053       2.556305
                          9       1   15dyz              1.286053       4.427650
                          9       1   15dz2              1.286053       2.556305

                         10       1    4s                1.357095       0.896123

                         11       1   12px               1.404875       2.180155
                         11       1   12py               1.404875       2.180155
                         11       1   12pz               1.404875       2.180155

                         12       1   13px               1.991527       3.372273
                         12       1   13py               1.991527       3.372273
                         12       1   13pz               1.991527       3.372273

                         13       1    5s                2.428204       1.386354

                         14       1    6s                4.344704       2.144768

                         15       1    7s                7.773833       3.318077

       Atomic covalent radius [Angstrom]:                                  0.320

       Atomic van der Waals radius [Angstrom]:                             1.090

     The atoms of this atomic kind are PAW atoms (GAPW):
       Hard Gaussian function radius:                                      1.200
       Rho0 radius:                                                        1.200
       Maximum GTO radius used for PAW projector construction:            24.566

     GAPW Soft Basis Set                             aug-SZV-MOLOPT-ae-mini_soft

       Number of orbital shell sets:                                           1
       Number of orbital shells:                                               4
       Number of primitive Cartesian functions:                                6
       Number of Cartesian basis functions:                                    6
       Number of spherical basis functions:                                    6
       Norm type:                                                              2

       Normalised Cartesian orbitals:

                        Set   Shell   Orbital            Exponent    Coefficient

                          1       1    1s                0.065428       0.000000
                                                         0.100112       0.016532
                                                         0.243077       0.102760
                                                         0.625955       0.185857
                                                         1.822143       0.188385
                                                         6.513144       0.000000

                          1       2    2s                0.065428       0.083549
                                                         0.100112       0.009605
                                                         0.243077       0.002524
                                                         0.625955       0.013457
                                                         1.822143       0.000000
                                                         6.513144       0.000000

                          1       3    3s                0.065428       0.037407
                                                         0.100112      -0.169070
                                                         0.243077      -0.018899
                                                         0.625955       0.012806
                                                         1.822143       0.000000
                                                         6.513144       0.000000

                          1       4    2px               0.065428       0.059908
                                                         0.100112      -0.023770
                                                         0.243077       0.000032
                                                         0.625955       0.017779
                                                         1.822143       0.000000
                                                         6.513144       0.000000
                          1       4    2py               0.065428       0.059908
                                                         0.100112      -0.023770
                                                         0.243077       0.000032
                                                         0.625955       0.017779
                                                         1.822143       0.000000
                                                         6.513144       0.000000
                          1       4    2pz               0.065428       0.059908
                                                         0.100112      -0.023770
                                                         0.243077       0.000032
                                                         0.625955       0.017779
                                                         1.822143       0.000000
                                                         6.513144       0.000000

     AE Potential information for                                            ALL

       Description:                                       All-electron potential
                                          Krack, Parrinello, PCCP 2, 2105 (2000)

       Gaussian exponent of the core charge distribution:              12.500000
       Electronic configuration (s p d ...):                           1   0   0


 MOLECULE KIND INFORMATION


[...]
 The design and implementation of FFTW3.
 https://doi.org/10.1109/JPROC.2004.840301

 R. L. Martin.
 J. Chem. Phys. 118, 4775-4777 (2003).
 Natural transition orbitals.
 https://doi.org/10.1063/1.1558471

 M. Krack, M. Parrinello.
 Phys. Chem. Chem. Phys. 2, 2105-2112 (2000).
 All-electron ab-initio molecular dynamics.
 https://doi.org/10.1039/b001167n

 G. Lippert, J. Hutter, M. Parrinello.
 Theor. Chem. Acc. 103, 124-140 (1999).
 The Gaussian and augmented-plane-wave density functional method for ab initio 
 molecular dynamics simulations.
 https://doi.org/10.1007/s002140050523

 J. P. Perdew, K. Burke, M. Ernzerhof.
 Phys. Rev. Lett. 77, 3865-3868 (1996).
 Generalized gradient approximation made simple.
 https://doi.org/10.1103/PhysRevLett.77.3865


 -------------------------------------------------------------------------------
 -                                                                             -
 -                                T I M I N G                                  -
 -                                                                             -
 -------------------------------------------------------------------------------
 SUBROUTINE                       CALLS  ASD         SELF TIME        TOTAL TIME
                                MAXIMUM       AVERAGE  MAXIMUM  AVERAGE  MAXIMUM
 CP2K                                 1  1.0    0.019    0.034  408.547  408.551
 qs_energies                          1  2.0    0.000    0.000  407.922  407.922
 qs_energies_properties               1  3.0    0.000    0.000  280.330  280.331
 tddfpt                               1  4.0    0.000    0.000  280.330  280.331
 tddfpt_energies                      1  5.0    0.000    0.000  280.233  280.233
 tddfpt_davidson_solver               1  6.0    0.001    0.001  279.202  279.203
 tddfpt_compute_Aop_evects            9  7.0    0.000    0.000  277.830  277.831
 fhxc_kernel                          9  8.0    0.006    0.007  265.906  265.907
 fft_wrap_pw1pw2                   5105 11.1    0.079    0.096  148.068  149.826
 fft_wrap_pw1pw2_250               3593 12.1    6.871    7.381  143.569  145.467
 pw_poisson_solve                   251  9.4    2.828    3.169  139.096  140.076
 scf_env_do_scf                       1  3.0    0.000    0.000  125.235  125.236
 scf_env_do_scf_inner_loop           71  4.0    0.001    0.005  125.235  125.235
 tddfpt_apply_coulomb               180  9.0    0.002    0.003  113.404  114.358
 fft3d_ps                          5105 13.1   51.824   57.675  109.829  112.364
 ps_wavelet_solve                   251 10.4   78.977   85.371  101.367  101.896
 qs_ks_update_qs_env                 71  5.0    0.000    0.001   90.912   90.917
 rebuild_ks_matrix                   71  6.0    0.000    0.000   90.907   90.911
 qs_ks_build_kohn_sham_matrix        71  7.0    0.009    0.010   90.907   90.911
 mp_alltoall_d54                    251 11.4   12.714   79.313   12.714   79.313
 xc_pw_derive                      1509 11.0    0.010    0.011   69.597   70.903
 qs_rho_update_rho_low              253  7.9    0.003    0.003   66.929   67.401
 calculate_rho_elec                 253  8.9    1.980    2.037   66.631   67.103
 tddfpt_apply_xc_analytic           180  9.0    0.452    0.496   64.626   65.054
 mp_alltoall_z22v                  5105 15.1   42.565   53.364   42.565   53.364
 xc_pw_divergence                   251 10.7    0.005    0.006   46.479   47.556
 density_rs2pw                      253  9.9    0.008    0.009   35.896   38.134
 xc_calc_2nd_deriv_analytical      1260 10.5    3.076    3.320   37.772   37.838
 yz_to_x                           2520 14.4    6.836    7.438   27.933   33.753
 x_to_yz                           2585 13.8    8.506    9.724   29.974   33.212
 grid_collocate_task_list           253  9.9   27.624   29.180   27.624   29.180
 qs_vxc_create                       71  8.0    0.001    0.001   27.629   27.629
 xc_vxc_pw_create                    71  9.0    0.751    0.801   27.628   27.628
 integrate_v_rspace                 251  9.0    0.006    0.007   27.058   27.121
 potential_pw2rs                    251 10.0    0.059    0.064   26.178   26.225
 transfer_rs2pw                    1265 10.8    0.017    0.020   17.698   19.735
 prepare_gapw_den                   252  8.7    0.003    0.004   19.215   19.621
 transfer_pw2rs                    1256 10.9    0.014    0.018   19.253   19.488
 put_rho0_on_grid                   252  9.7    2.013    2.109   18.726   19.132
 mp_waitany                       33286 12.8   15.247   17.320   15.247   17.320
 gspace_mixing                       70  5.0    0.548    0.563   14.804   14.804
 xc_rho_set_and_dset_create          72 10.0    0.420    0.456   13.408   14.448
 mp_alltoall_d45                    252 11.4    9.163   14.133    9.163   14.133
 transfer_rs2pw_250                 506 11.8    5.046    5.411   12.085   14.060
 integrate_four_center              431  9.8    8.454   11.002   13.828   13.849
 pw_gather_p                       2520 13.4   11.876   13.719   11.876   13.719
 transfer_pw2rs_250                 503 11.7    5.362    5.728   12.637   13.151
 pw_scatter_p                      2585 12.8   11.463   11.961   11.463   11.961
 broyden_mixing                      70  6.0   11.190   11.397   11.459   11.475
 tddfpt_apply_hfx                     9  8.0    0.002    0.003   11.252   11.252
 tddft_hfx_matrix                   360  9.0    0.004    0.005   10.196   10.205
 pw_derive                         2262 11.8    9.345    9.832    9.345    9.832
 mp_alltoall_d11v                 15916 11.6    4.702    9.704    4.702    9.704
 integrate_vhg0_rspace              251  9.4    0.090    0.137    8.227    8.278
 sum_up_and_integrate                71  8.0    0.001    0.001    7.869    7.884
 mp_waitall_1                    148046 13.8    5.084    7.655    5.084    7.655
 dbcsr_multiply_generic            1557 10.3    0.035    0.037    5.988    7.554
 pw_copy                           3410 11.0    5.742    6.086    5.742    6.086
 multiply_cannon                   1557 11.3    0.069    0.072    3.588    6.051
 pw_copy_to_array                  2520 13.4    4.738    5.715    4.738    5.715
 multiply_cannon_loop              1557 12.3    0.041    0.042    3.012    5.443
 cp2k_distribution_to_z_slices      251 10.4    2.325    2.767    4.634    5.404
 mp_sum_d                          4914  7.7    2.863    5.389    2.863    5.389
 pw_poisson_set                     252 10.4    0.005    0.005    5.028    5.308
 multiply_cannon_metrocomm3       12456 13.3    0.016    0.017    2.029    5.188
 cp_dbcsr_plus_fm_fm_t              251  8.4    0.002    0.002    4.337    4.870
 mp_sync                           2284 11.5    2.718    4.766    2.718    4.766
 cp_dbcsr_sm_fm_multiply           1126  8.6    0.012    0.014    4.729    4.741
 copy_dbcsr_to_fm                  1219  9.3    0.009    0.009    3.205    4.353
 pw_axpy                           2698 10.8    3.988    4.313    3.988    4.313
 fft_wrap_pw1pw2_90                 504 11.9    0.174    0.197    3.444    4.047
 xc_functional_eval                1578 10.8    0.001    0.003    2.978    3.884
 pbe_lda_eval                      1578 11.8    2.977    3.884    2.977    3.884
 mp_alltoall_i22                   4970 11.4    2.563    3.711    2.563    3.711
 hfx_ks_matrix                       71  8.0    0.001    0.001    3.642    3.658
 rs_grid_zero                      1258 11.9    3.465    3.657    3.465    3.657
 dbcsr_desymmetrize_deep           1220 10.3    0.013    0.018    2.456    3.567
 transfer_pw2rs_90                  251 12.0    0.845    0.925    2.922    3.282
 transfer_pw2rs_30                  251 12.0    1.725    1.893    3.049    3.260
 pw_copy_from_array                2585 12.8    2.991    3.229    2.991    3.229
 pw_integral_ab_c1d_c1d_gs          251 10.4    2.716    2.768    3.066    3.222
 mp_sum_l                          5965 10.6    1.921    2.919    1.921    2.919
 cp_dbcsr_sm_fm_multiply_core      1126  9.6    0.002    0.002    1.727    2.919
 pw_zero                           2772 10.6    2.624    2.826    2.624    2.826
 transfer_rs2pw_90                  253 11.9    0.828    0.929    2.577    2.673
 multiply_cannon_metrocomm1       12456 13.3    0.008    0.009    0.471    2.459
 transfer_rs2pw_30                  253 11.9    0.811    0.937    2.241    2.338
 mp_sendrecv_dv                   15686 12.9    2.022    2.164    2.022    2.164
 qs_energies_init_hamiltonians        1  3.0    0.000    0.000    1.774    1.774
 build_core_hamiltonian_matrix        1  4.0    0.000    0.000    1.648    1.648
 overlap_condnum                      1  5.0    0.000    0.000    1.647    1.647
 mp_max_i                           754  5.0    0.783    1.637    0.783    1.637
 Vh_1c_gg_integrals                 251  9.4    0.027    0.069    0.706    1.549
 integrate_four_center_main         431 10.8    0.059    0.083    1.460    1.538
 integrate_four_center_bin        28885 11.8    1.401    1.482    1.401    1.482
 rs_scatter_matrices                253  9.9    0.003    0.003    0.479    1.356
 cp_fm_diag_elpa                    122  7.2    0.000    0.000    1.237    1.239
 mp_sum_dm                        14487 10.0    0.928    1.228    0.928    1.228
 dbcsr_complete_redistribute       3750 10.5    0.086    0.115    1.195    1.224
 calculate_xc_2nd_deriv_atom        180  9.0    0.111    0.339    0.311    1.215
 mp_isend_dv                      51372 13.7    0.651    1.171    0.651    1.171
 cp_fm_diag_elpa_base               122  8.3    0.480    0.762    0.526    1.105
 prepare_dr1dr                     1260 11.5    0.973    1.056    0.973    1.056
 qs_scf_new_mos                      71  5.0    0.001    0.001    0.877    1.056
 fft_wrap_pw1pw2_30                 504 11.9    0.038    0.040    0.784    1.016
 cp_fm_redistribute_end             122  8.2    0.490    0.962    0.492    0.964
 multiply_cannon_metrocomm4       10899 13.3    0.017    0.020    0.420    0.949
 gaVxcgb_GC                         753  9.7    0.188    0.899    0.188    0.899
 grid_integrate_task_list           251 10.0    0.400    0.881    0.400    0.881
 cp_fm_power                          1  6.0    0.000    0.000    0.725    0.823
 transfer_rs2pw_10                  253 11.9    0.186    0.206    0.779    0.813
 make_m2s                          3114 11.3    0.018    0.019    0.379    0.790
 powell_optimize                 508869 11.0    0.741    0.771    0.741    0.771
 rs_gather_matrices                 251 10.0    0.005    0.007    0.474    0.769
 scale_and_distribute               502 11.4    0.583    0.723    0.583    0.723
 make_images                       3114 12.3    0.044    0.046    0.319    0.722
 transfer_pw2rs_10                  251 12.0    0.254    0.274    0.632    0.678
 tddfpt_apply_energy_diff             9  8.0    0.000    0.001    0.672    0.672
 calculate_dm_sparse                 71  6.0    0.000    0.000    0.434    0.611
 tddfpt_compute_residual_vects        8  7.0    0.000    0.001    0.593    0.593
 calc_screening_functions             1 10.0    0.143    0.149    0.563    0.584
 pw_poisson_rebuild                 251 10.4    0.000    0.000    0.532    0.555
 ps_wavelet_create                    1 10.0    0.000    0.000    0.532    0.555
 RS_z_slice_distribution              1 11.0    0.461    0.502    0.532    0.555
 cp_fm_redistribute_start           122  8.2    0.211    0.517    0.220    0.529
 init_scf_run                         1  3.0    0.000    0.000    0.513    0.513
 parallel_gemm_fm                  1648  8.3    0.001    0.002    0.483    0.511
 parallel_gemm_fm_cosma            1648  9.3    0.481    0.510    0.481    0.510
 make_images_data                  3114 13.3    0.019    0.022    0.094    0.501
 mp_allgather_i34                  1557 12.3    0.459    0.497    0.459    0.497
 scf_env_initial_rho_setup            1  4.0    0.000    0.000    0.496    0.496
 mp_max_d                           233  8.3    0.254    0.491    0.254    0.491
 tddfpt_orthonormalize_psi1_psi      10  6.9    0.010    0.011    0.490    0.490
 self_consistency_check              71  5.0    0.000    0.000    0.253    0.490
 cp_sm_mix                           71  6.0    0.000    0.000    0.253    0.489
 calc_pair_dist_radii                 1 10.0    0.135    0.140    0.457    0.483
 hybrid_alltoall_any               4334 13.5    0.018    0.020    0.106    0.477
 copy_fm_to_dbcsr                  2529  9.6    0.006    0.007    0.433    0.470
 mp_sum_dv                        21838  8.9    0.354    0.459    0.354    0.459
 calculate_rho_atom                1260  9.7    0.323    0.436    0.323    0.436
 pw_scale                           644  9.5    0.394    0.427    0.394    0.427
 mp_alltoall_i11v                 12470 11.5    0.179    0.424    0.179    0.424
 cp_fm_uplo_to_full                 123  9.3    0.073    0.422    0.073    0.422
 calculate_vxc_atom                  71  8.0    0.047    0.092    0.412    0.413
 eigensolver_symm                    71  6.0    0.005    0.005    0.399    0.400
 qs_init_subsys                       1  2.0    0.001    0.001    0.392    0.392
 qs_env_setup                         1  3.0    0.000    0.000    0.389    0.389
 qs_env_rebuild_pw_env                2  3.5    0.000    0.000    0.389    0.389
 pw_env_rebuild                       1  5.0    0.000    0.000    0.389    0.389
 pw_grid_setup                        4  6.0    0.000    0.000    0.378    0.378
 pw_grid_setup_internal               4  7.0    0.005    0.006    0.378    0.378
 tddfpt_construct_ground_state_       1  6.0    0.000    0.000    0.371    0.373
 mp_bcast_b_src                     193  7.8    0.029    0.354    0.029    0.354
 pw_grid_sort                         4  8.0    0.219    0.228    0.307    0.320
 calculate_rho_atom_coeff           253  8.9    0.059    0.067    0.295    0.296
 tddfpt_print_nto_analysis            1  6.0    0.001    0.002    0.290    0.290
 tddfpt_compute_ritz_vects            9  7.0    0.002    0.003    0.262    0.262
 update_ks_atom                     251  8.7    0.040    0.056    0.128    0.259
 create_kernel_env                    1  6.0    0.000    0.000    0.228    0.258
 xc_prep_2nd_deriv                    1  7.0    0.000    0.000    0.228    0.258
 fft_wrap_pw1pw2_10                 504 11.9    0.008    0.009    0.192    0.255
 mp_bcast_dm                       9538  9.7    0.088    0.221    0.088    0.221
 arnoldi_conjugate_gradient           5  6.0    0.005    0.006    0.213    0.214
 xc_2nd_deriv_of_r                 1080 10.0    0.008    0.041    0.043    0.210
 mp_isendrecv_dv                  42284 12.3    0.088    0.197    0.088    0.197
 create_qs_kind_set                   1  2.0    0.000    0.000    0.191    0.192
 read_qs_kind                         5  3.0    0.080    0.121    0.191    0.192
 dbcsr_finalize                    9643 11.3    0.023    0.033    0.142    0.185
 cp_fm_trace_a1b1t1_aa            16500  8.0    0.034    0.036    0.154    0.155
 cp_fm_geeig                         20  7.0    0.001    0.001    0.152    0.152
 cp_fm_norm                           2  6.0    0.100    0.147    0.100    0.147
 mp_cart_sub                       2440 11.3    0.128    0.131    0.128    0.131
 make_images_sizes                 3114 13.3    0.002    0.003    0.112    0.130
 cp_fm_syrk                           1  7.0    0.120    0.129    0.120    0.129
 dbcsr_sym_matrix_vector_mult      1585  7.0    0.011    0.012    0.122    0.128
 mp_alltoall_i44                   3114 14.3    0.110    0.128    0.110    0.128
 qs_env_update_s_mstruct              1  4.0    0.000    0.000    0.043    0.125
 qs_create_task_list                  1  5.0    0.000    0.000    0.043    0.125
 generate_qs_task_list                1  6.0    0.000    0.000    0.043    0.125
 mp_cart_create                    2479 10.5    0.116    0.123    0.118    0.125
 distribute_tasks                     1  7.0    0.000    0.000    0.043    0.125
 calculate_ecore_overlap              1  4.0    0.000    0.000    0.082    0.124
 create_local_tasks                   1  8.0    0.000    0.000    0.042    0.124
 mp_alltoall_l11v                     1  9.0    0.042    0.124    0.042    0.124
 parser_read_line                 35160  4.0    0.005    0.006    0.112    0.115
 integrate_four_center_dist_KS      431 10.8    0.016    0.022    0.103    0.111
 parser_read_line_low                50  5.0    0.003    0.028    0.107    0.110
 broadcast_input_information         50  6.0    0.008    0.008    0.104    0.108
 tddfpt_orthogonalize_psi1_psi0      10  6.9    0.000    0.000    0.078    0.103
 dbcsr_merge_all                   7952 12.3    0.053    0.065    0.082    0.103
 tddfpt_dipole_operator               1  5.0    0.000    0.000    0.094    0.094
 sort_shells                          4  9.0    0.088    0.092    0.088    0.092
 dbcsr_create_new                 31246 11.3    0.064    0.068    0.086    0.091
 dbcsr_add_d                       2431  7.1    0.001    0.001    0.022    0.086
 mp_isend_dm3                      9078 12.8    0.069    0.086    0.069    0.086
 dbcsr_add_anytype                 2431  8.1    0.003    0.011    0.021    0.085
 mp_bcast_i_src                     200  7.0    0.077    0.083    0.077    0.083
 offload_free_buffer                259 10.2    0.064    0.083    0.064    0.083
 xc_pw_smooth                        71 10.0    0.000    0.000    0.073    0.083
 integrate_four_center_getP         431 10.8    0.016    0.018    0.073    0.080
 mp_rank_compare                   5105 14.1    0.068    0.078    0.068    0.078
 scf_post_calculation_gpw             1  3.0    0.000    0.000    0.069    0.069
 write_available_results              1  4.0    0.000    0.000    0.069    0.069
 write_mo_free_results                1  5.0    0.009    0.010    0.069    0.069
 mixing_init                          1  5.0    0.063    0.067    0.067    0.067
 dbcsr_iterator_start             45209 10.9    0.044    0.053    0.054    0.066
 integrate_four_center_load         431 10.8    0.000    0.001    0.035    0.066
 hfx_load_balance                     1 11.0    0.000    0.000    0.035    0.065
 dbcsr_work_create                13843 12.2    0.033    0.041    0.051    0.063
 copy_fm_to_dbcsr_bc               2529 10.6    0.014    0.016    0.055    0.060
 hfx_load_balance_range               1 12.0    0.000    0.000    0.028    0.059
 multiply_cannon_multrec          12456 13.3    0.022    0.053    0.027    0.058
 vxc_of_r_new                       426  9.0    0.002    0.009    0.012    0.057
 cp_fm_write_unformatted             24  7.0    0.052    0.053    0.052    0.053
 dbcsr_col_vec_to_rep_row          1585  8.0    0.005    0.006    0.043    0.049
 dbcsr_data_new                  139184 12.5    0.044    0.049    0.044    0.049
 calculate_rho0_atom               1260  9.7    0.046    0.047    0.046    0.047
 dbcsr_work_destroy_all           13843 13.1    0.023    0.029    0.034    0.044
 dbcsr_data_release              202519 12.5    0.037    0.042    0.037    0.042
 dbcsr_copy                       10126  8.8    0.017    0.018    0.039    0.041
 -------------------------------------------------------------------------------

 The number of warnings for this run is : 1
 
 -------------------------------------------------------------------------------
  **** **** ******  **  PROGRAM ENDED AT                 2025-06-23 13:13:56.487
 ***** ** ***  *** **   PROGRAM RAN ON                                  n2cn0480
 **    ****   ******    PROGRAM RAN BY                                  metdyn02
 ***** **    ** ** **   PROGRAM PROCESS ID                                517207
  **** **  *******  **  PROGRAM STOPPED IN /scratch/hpc-prf-metdyn/metdyn02_Remi
                                           /10_MOL/05_MOL/aUKBqsEOTmq69kFe5R_nOg
                                           /5k_set_final_qzvp/TIBPAW/mini-SZV/TD
                                           DFT/RILIM
