 DBCSR| CPU Multiplication driver                                           XSMM (U)
 DBCSR| Multrec recursion limit                                              512 (U)
 DBCSR| Multiplication stack size                                           1000 (D)
 DBCSR| Maximum elements for images                                    UNLIMITED (U)
 DBCSR| Multiplicative factor virtual images                                   1 (U)
 DBCSR| Use multiplication densification                                       T (D)
 DBCSR| Multiplication size stacks                                             3 (U)
 DBCSR| Use memory pool for CPU allocation                                     F (U)
 DBCSR| Number of 3D layers                                               SINGLE (U)
 DBCSR| Use MPI memory allocation                                              F (U)
 DBCSR| Use RMA algorithm                                                      F (U)
 DBCSR| Use Communication thread                                               T (U)
 DBCSR| Communication thread load                                             75 (D)
 DBCSR| MPI: My process id                                                     0
 DBCSR| MPI: Number of processes                                              16
 DBCSR| OMP: Current number of threads                                         4
 DBCSR| OMP: Max number of threads                                             4
 DBCSR| Split modifier for TAS multiplication algorithm                  1.0E+00 (U)


  **** **** ******  **  PROGRAM STARTED AT               2025-07-01 14:02:32.480
 ***** ** ***  *** **   PROGRAM STARTED ON                              n2cn0668
 **    ****   ******    PROGRAM STARTED BY                              metdyn02
 ***** **    ** ** **   PROGRAM PROCESS ID                               1328276
  **** **  *******  **  PROGRAM STARTED IN /scratch/hpc-prf-metdyn/metdyn02_Remi
                                           /10_MOL/05_MOL/W4-11+ALK/co2/mini-SZV
                                           /TDDFT/RILIM

 CP2K| version string:                 CP2K version 2025.1 (Development Version)
 CP2K| source code revision number:                                  git:400017f
 CP2K| cp2kflags: omp libint fftw3 libxc libgrpp elpa parallel scalapack mpi_f08
 CP2K|             cosma xsmm plumed2 spglib libvori libbqb libvdwxc hdf5
 CP2K| is freely available from                            https://www.cp2k.org/
 CP2K| Program compiled at                         Thu Jun 26 12:02:16 CEST 2025
 CP2K| Program compiled on                                              n2login1
 CP2K| Program compiled for                                                local
 CP2K| Data directory path    /opt/software/pc2/EB-SW/software/CP2K/2024.1-foss-
 CP2K| Input file name                                                    GW.inp

 GLOBAL| Force Environment number                                              1
 GLOBAL| Basis set file name            /scratch/hpc-prf-metdyn/metdyn02_Remi/BA
 GLOBAL| Potential file name            /pc2/groups/hpc-prf-metdyn/metdyn02_Remi
 GLOBAL| MM Potential file name                                     MM_POTENTIAL
 GLOBAL| Coordinate file name                                      __STD_INPUT__
 GLOBAL| Method name                                                        CP2K
 GLOBAL| Project name                                                       MoS2
 GLOBAL| Run type                                                         ENERGY
 GLOBAL| FFT library                                                       FFTW3
 GLOBAL| Diagonalization library                                            ELPA
 GLOBAL| Cholesky decomposition library                                ScaLAPACK
 GLOBAL| DGEMM library                                                      BLAS
 GLOBAL| Minimum number of eigenvectors for ELPA usage                        16
 GLOBAL| Orthonormality check for eigenvectors                          DISABLED
 GLOBAL| Matrix multiplication library                                     COSMA
 GLOBAL| All-to-all communication in single precision                          F
 GLOBAL| FFTs using library dependent lengths                                  F
 GLOBAL| Grid backend                                                       AUTO
 GLOBAL| Global print level                                               MEDIUM
 GLOBAL| MPI I/O enabled                                                       T
 GLOBAL| Total number of message passing processes                            16
 GLOBAL| Number of threads for this process                                    4
 GLOBAL| This output is from process                                           0
 GLOBAL| OpenMP stack size per thread (OMP_STACKSIZE)                    default
 GLOBAL| CPU model name                          AMD EPYC 7763 64-Core Processor
 GLOBAL| CPUID                                                              1002

 MEMORY| system memory details [Kb]
 MEMORY|                        rank 0           min           max       average
 MEMORY| MemTotal            263897600     263897592     263897600     263897596
 MEMORY| MemFree             243808492     243808492     249008216     246408354
 MEMORY| Buffers                120480        120480        126276        123378
 MEMORY| Cached               13486372       8526236      13486372      11006304
 MEMORY| Slab                  1762860       1723980       1762860       1743420
 MEMORY| SReclaimable           427144        427144        473764        450454
 MEMORY| MemLikelyFree       257842488     257842488     258134492     257988490


 *** Fundamental physical constants (SI units) ***

 *** Literature: B. J. Mohr and B. N. Taylor,
 ***             CODATA recommended values of the fundamental physical
 ***             constants: 2006, Web Version 5.1
 ***             http://physics.nist.gov/constants

 Speed of light in vacuum [m/s]                             2.99792458000000E+08
 Magnetic constant or permeability of vacuum [N/A**2]       1.25663706143592E-06
 Electric constant or permittivity of vacuum [F/m]          8.85418781762039E-12
 Planck constant (h) [J*s]                                  6.62606896000000E-34
 Planck constant (h-bar) [J*s]                              1.05457162825177E-34
 Elementary charge [C]                                      1.60217648700000E-19
 Electron mass [kg]                                         9.10938215000000E-31
 Electron g factor [ ]                                     -2.00231930436220E+00
 Proton mass [kg]                                           1.67262163700000E-27
 Fine-structure constant                                    7.29735253760000E-03
 Rydberg constant [1/m]                                     1.09737315685270E+07
 Avogadro constant [1/mol]                                  6.02214179000000E+23
 Boltzmann constant [J/K]                                   1.38065040000000E-23
 Atomic mass unit [kg]                                      1.66053878200000E-27
 Bohr radius [m]                                            5.29177208590000E-11

 *** Conversion factors ***

 [u] -> [a.u.]                                              1.82288848426455E+03
 [Angstrom] -> [Bohr] = [a.u.]                              1.88972613288564E+00
 [a.u.] = [Bohr] -> [Angstrom]                              5.29177208590000E-01
 [a.u.] -> [s]                                              2.41888432650478E-17
 [a.u.] -> [fs]                                             2.41888432650478E-02
 [a.u.] -> [J]                                              4.35974393937059E-18
 [a.u.] -> [N]                                              8.23872205491840E-08
 [a.u.] -> [K]                                              3.15774647902944E+05
 [a.u.] -> [kJ/mol]                                         2.62549961709828E+03
 [a.u.] -> [kcal/mol]                                       6.27509468713739E+02
 [a.u.] -> [Pa]                                             2.94210107994716E+13
 [a.u.] -> [bar]                                            2.94210107994716E+08
 [a.u.] -> [atm]                                            2.90362800883016E+08
 [a.u.] -> [eV]                                             2.72113838565563E+01
 [a.u.] -> [Hz]                                             6.57968392072181E+15
 [a.u.] -> [1/cm] (wave numbers)                            2.19474631370540E+05
 [a.u./Bohr**2] -> [1/cm]                                   5.14048714338585E+03
 

 CELL_TOP| Volume [angstrom^3]:                                     27000.000000
 CELL_TOP| Vector a [angstrom    30.000     0.000     0.000   |a| =    30.000000
 CELL_TOP| Vector b [angstrom     0.000    30.000     0.000   |b| =    30.000000
 CELL_TOP| Vector c [angstrom     0.000     0.000    30.000   |c| =    30.000000
 CELL_TOP| Angle (b,c), alpha [degree]:                                90.000000
 CELL_TOP| Angle (a,c), beta  [degree]:                                90.000000
 CELL_TOP| Angle (a,b), gamma [degree]:                                90.000000
 CELL_TOP| Numerically orthorhombic:                                         YES
 CELL_TOP| Periodicity                                                      NONE

 GENERATE|  Preliminary Number of Bonds generated:                             0
 GENERATE|  Achieved consistency in connectivity generation.

 CELL| Volume [angstrom^3]:                                         27000.000000
 CELL| Vector a [angstrom]:      30.000     0.000     0.000   |a| =    30.000000
 CELL| Vector b [angstrom]:       0.000    30.000     0.000   |b| =    30.000000
 CELL| Vector c [angstrom]:       0.000     0.000    30.000   |c| =    30.000000
 CELL| Angle (b,c), alpha [degree]:                                    90.000000
 CELL| Angle (a,c), beta  [degree]:                                    90.000000
 CELL| Angle (a,b), gamma [degree]:                                    90.000000
 CELL| Numerically orthorhombic:                                             YES
 CELL| Periodicity                                                          NONE

 CELL_REF| Volume [angstrom^3]:                                     27000.000000
 CELL_REF| Vector a [angstrom    30.000     0.000     0.000   |a| =    30.000000
 CELL_REF| Vector b [angstrom     0.000    30.000     0.000   |b| =    30.000000
 CELL_REF| Vector c [angstrom     0.000     0.000    30.000   |c| =    30.000000
 CELL_REF| Angle (b,c), alpha [degree]:                                90.000000
 CELL_REF| Angle (a,c), beta  [degree]:                                90.000000
 CELL_REF| Angle (a,b), gamma [degree]:                                90.000000
 CELL_REF| Numerically orthorhombic:                                         YES
 CELL_REF| Periodicity                                                      NONE

 *******************************************************************************
 *******************************************************************************
 **                                                                           **
 **     #####                         ##              ##                      **
 **    ##   ##            ##          ##              ##                      **
 **   ##     ##                       ##            ######                    **
 **   ##     ##  ##   ##  ##   #####  ##  ##   ####   ##    #####    #####    **
 **   ##     ##  ##   ##  ##  ##      ## ##   ##      ##   ##   ##  ##   ##   **
 **   ##  ## ##  ##   ##  ##  ##      ####     ###    ##   ######   ######    **
 **    ##  ###   ##   ##  ##  ##      ## ##      ##   ##   ##       ##        **
 **     #######   #####   ##   #####  ##  ##  ####    ##    #####   ##        **
 **           ##                                                    ##        **
 **                                                                           **
 **                                                ... make the atoms dance   **
 **                                                                           **
 **            Copyright (C) by CP2K developers group (2000-2025)             **
 **                      J. Chem. Phys. 152, 194103 (2020)                    **
 **                                                                           **
 *******************************************************************************

 DFT| Spin restricted Kohn-Sham (RKS) calculation                            RKS
 DFT| Multiplicity                                                             1
 DFT| Number of spin states                                                    1
 DFT| Charge                                                                   0
 DFT| Self-interaction correction (SIC)                                       NO
 DFT| Cutoffs: density                                              1.000000E-10
 DFT|          gradient                                             1.000000E-10
 DFT|          tau                                                  1.000000E-10
 DFT|          cutoff_smoothing_range                               0.000000E+00
 DFT| XC density smoothing                                                  NONE
 DFT| XC derivatives                                                          PW

 FUNCTIONAL| PBE:
 FUNCTIONAL| J.P.Perdew, K.Burke, M.Ernzerhof, Phys. Rev. Letter, vol. 77, n 18,
 FUNCTIONAL|  pp. 3865-3868, (1996)sx=0.750sc=1.000{spin unpolarized}           


 QS| Method:                                                                GAPW
 QS| Density plane wave grid type                        NON-SPHERICAL FULLSPACE
 QS| Number of grid levels:                                                    4
 QS| Density cutoff [a.u.]:                                                250.0
 QS| Multi grid cutoff [a.u.]: 1) grid level                               250.0
 QS|                           2) grid level                                83.3
 QS|                           3) grid level                                27.8
 QS|                           4) grid level                                 9.3
 QS| Grid level progression factor:                                          3.0
 QS| Relative density cutoff [a.u.]:                                        50.0
 QS| Interaction thresholds: eps_pgf_orb:                                1.0E-12
 QS|                         eps_filter_matrix:                          0.0E+00
 QS|                         eps_core_charge:                            1.0E-14
 QS|                         eps_rho_gspace:                             1.0E-12
 QS|                         eps_rho_rspace:                             1.0E-12
 QS|                         eps_gvg_rspace:                             1.0E-06
 QS|                         eps_ppl:                                    1.0E-02
 QS|                         eps_ppnl:                                   1.0E-08
 QS| GAPW|      One center basis from orbital basis primitives
 QS| GAPW|                   eps_fit:                                    1.0E-04
 QS| GAPW|                   eps_iso:                                    1.0E-12
 QS| GAPW|                   eps_svd:                                    1.0E-08
 QS| GAPW|                   eps_cpc:                                    1.0E-12
 QS| GAPW|   atom-r-grid: quadrature:                                     GC_LOG
 QS| GAPW|      atom-s-grid:  max l :                                          2
 QS| GAPW|      max_l_rho0 :                                                   2


 ATOMIC KIND INFORMATION

  1. Atomic kind: C                                     Number of atoms:       1

     Orbital Basis Set                                    aug-SZV-MOLOPT-ae-mini

       Number of orbital shell sets:                                           2
       Number of orbital shells:                                               5
       Number of primitive Cartesian functions:                                7
       Number of Cartesian basis functions:                                    9
       Number of spherical basis functions:                                    9
       Norm type:                                                              2

       Normalised Cartesian orbitals:

                        Set   Shell   Orbital            Exponent    Coefficient

                          1       1    2s                0.114558       0.000000
                                                         0.222289       0.161536
                                                         0.683483       0.214036
                                                         2.941249      -0.160017

                          1       2    3s                0.114558       0.000272
                                                         0.222289       0.256636
                                                         0.683483      -0.079244
                                                         2.941249       0.000032

                          1       3    3px               0.114558       0.000000
                                                         0.222289       0.085276
                                                         0.683483       0.538304
                                                         2.941249       0.856044
                          1       3    3py               0.114558       0.000000
                                                         0.222289       0.085276
                                                         0.683483       0.538304
                                                         2.941249       0.856044
                          1       3    3pz               0.114558       0.000000
                                                         0.222289       0.085276
                                                         0.683483       0.538304
                                                         2.941249       0.856044

                          1       4    4px               0.114558      -0.035043
                                                         0.222289      -0.159067
                                                         0.683483       0.106927
                                                         2.941249      -0.036832
                          1       4    4py               0.114558      -0.035043
                                                         0.222289      -0.159067
                                                         0.683483       0.106927
                                                         2.941249      -0.036832
                          1       4    4pz               0.114558      -0.035043
                                                         0.222289      -0.159067
                                                         0.683483       0.106927
                                                         2.941249      -0.036832

                          2       1    1s               71.616837       2.707801
                                                        13.045096       2.618883
                                                         3.530512       0.816191

     RI Auxiliary Basis Set             RI_aug-SZV-MOLOPT-ae-mini_N_RI_055_s_p_d

       Number of orbital shell sets:                                          19
       Number of orbital shells:                                              19
       Number of primitive Cartesian functions:                               19
       Number of Cartesian basis functions:                                   61
       Number of spherical basis functions:                                   55
       Norm type:                                                              2

       Normalised Cartesian orbitals:

                        Set   Shell   Orbital            Exponent    Coefficient

                          1       1    1s                0.286395       0.279019

                          2       1    8px               0.286395       0.298639
                          2       1    8py               0.286395       0.298639
                          2       1    8pz               0.286395       0.298639

                          3       1   14dx2              0.286395       0.184544
                          3       1   14dxy              0.286395       0.319639
                          3       1   14dxz              0.286395       0.319639
                          3       1   14dy2              0.286395       0.184544
                          3       1   14dyz              0.286395       0.319639
                          3       1   14dz2              0.286395       0.184544

                          4       1    2s                0.459764       0.397934

                          5       1    9px               0.505415       0.607436
                          5       1    9py               0.505415       0.607436
                          5       1    9pz               0.505415       0.607436

                          6       1   15dx2              0.505415       0.498648
                          6       1   15dxy              0.505415       0.863684
                          6       1   15dxz              0.505415       0.863684
                          6       1   15dy2              0.505415       0.498648
                          6       1   15dyz              0.505415       0.863684
                          6       1   15dz2              0.505415       0.498648

                          7       1    3s                0.738081       0.567529

                          8       1   10px               0.891931       1.235533
                          8       1   10py               0.891931       1.235533
                          8       1   10pz               0.891931       1.235533

                          9       1   16dx2              0.891931       1.347378
                          9       1   16dxy              0.891931       2.333728
                          9       1   16dxz              0.891931       2.333728
                          9       1   16dy2              0.891931       1.347378
                          9       1   16dyz              0.891931       2.333728
                          9       1   16dz2              0.891931       1.347378

                         10       1    4s                1.184876       0.809403

                         11       1   11px               1.574035       2.513091
                         11       1   11py               1.574035       2.513091
                         11       1   11pz               1.574035       2.513091

                         12       1   17dx2              1.574035       3.640699
                         12       1   17dxy              1.574035       6.305876
                         12       1   17dxz              1.574035       6.305876
                         12       1   17dy2              1.574035       3.640699
                         12       1   17dyz              1.574035       6.305876
                         12       1   17dz2              1.574035       3.640699

                         13       1    5s                1.902139       1.154361

                         14       1   12px               2.777778       5.111660
                         14       1   12py               2.777778       5.111660
                         14       1   12pz               2.777778       5.111660

                         15       1   18dx2              2.777778       9.837395
                         15       1   18dxy              2.777778      17.038868
                         15       1   18dxz              2.777778      17.038868
                         15       1   18dy2              2.777778       9.837395
                         15       1   18dyz              2.777778      17.038868
                         15       1   18dz2              2.777778       9.837395

                         16       1    6s                3.053594       1.646337

                         17       1    7s                4.902082       2.347986

                         18       1   13px               4.902082      10.397185
                         18       1   13py               4.902082      10.397185
                         18       1   13pz               4.902082      10.397185

                         19       1   19dx2              4.902082      26.581250
                         19       1   19dxy              4.902082      46.040076
                         19       1   19dxz              4.902082      46.040076
                         19       1   19dy2              4.902082      26.581250
                         19       1   19dyz              4.902082      46.040076
                         19       1   19dz2              4.902082      26.581250

       Atomic covalent radius [Angstrom]:                                  0.770

       Atomic van der Waals radius [Angstrom]:                             1.700

     The atoms of this atomic kind are PAW atoms (GAPW):
       Hard Gaussian function radius:                                      1.512
       Rho0 radius:                                                        1.512
       Maximum GTO radius used for PAW projector construction:            24.566

     GAPW Soft Basis Set                             aug-SZV-MOLOPT-ae-mini_soft

       Number of orbital shell sets:                                           2
       Number of orbital shells:                                               5
       Number of primitive Cartesian functions:                                5
       Number of Cartesian basis functions:                                    9
       Number of spherical basis functions:                                    9
       Norm type:                                                              2

       Normalised Cartesian orbitals:

                        Set   Shell   Orbital            Exponent    Coefficient

                          1       1    2s                0.114558       0.000000
                                                         0.222289       0.161536
                                                         0.683483       0.214036
                                                         2.941249      -0.160017

                          1       2    3s                0.114558       0.000272
                                                         0.222289       0.256636
                                                         0.683483      -0.079244
                                                         2.941249       0.000032

                          1       3    3px               0.114558       0.000000
                                                         0.222289       0.085276
                                                         0.683483       0.538304
                                                         2.941249       0.856044
                          1       3    3py               0.114558       0.000000
                                                         0.222289       0.085276
                                                         0.683483       0.538304
                                                         2.941249       0.856044
                          1       3    3pz               0.114558       0.000000
                                                         0.222289       0.085276
                                                         0.683483       0.538304
                                                         2.941249       0.856044

                          1       4    4px               0.114558      -0.035043
                                                         0.222289      -0.159067
                                                         0.683483       0.106927
                                                         2.941249      -0.036832
                          1       4    4py               0.114558      -0.035043
                                                         0.222289      -0.159067
                                                         0.683483       0.106927
                                                         2.941249      -0.036832
                          1       4    4pz               0.114558      -0.035043
                                                         0.222289      -0.159067
                                                         0.683483       0.106927
                                                         2.941249      -0.036832

                          2       1    1s                3.530512       0.816191

     AE Potential information for                                            ALL

       Description:                                       All-electron potential
                                          Krack, Parrinello, PCCP 2, 2105 (2000)

       Gaussian exponent of the core charge distribution:               4.109048
       Electronic configuration (s p d ...):                           4   2   0

  2. Atomic kind: O                                     Number of atoms:       2

     Orbital Basis Set                                    aug-SZV-MOLOPT-ae-mini

       Number of orbital shell sets:                                           2
       Number of orbital shells:                                               5
       Number of primitive Cartesian functions:                                7
       Number of Cartesian basis functions:                                    9
       Number of spherical basis functions:                                    9
       Norm type:                                                              2

       Normalised Cartesian orbitals:

                        Set   Shell   Orbital            Exponent    Coefficient

                          1       1    1s                0.162491       0.000000
                                                         0.380388       0.241685
                                                         1.169596       0.320234
                                                         5.033151      -0.239413

                          1       2    2s                0.162491       0.289618
                                                         0.380388      -0.257800
                                                         1.169596      -0.000000
                                                         5.033151      -0.000284

                          1       3    2px               0.162491       0.000000
                                                         0.380388       0.166902
                                                         1.169596       1.053568
                                                         5.033151       1.675450
                          1       3    2py               0.162491       0.000000
                                                         0.380388       0.166902
                                                         1.169596       1.053568
                                                         5.033151       1.675450
                          1       3    2pz               0.162491       0.000000
                                                         0.380388       0.166902
                                                         1.169596       1.053568
                                                         5.033151       1.675450

                          1       4    3px               0.162491       0.166510
                                                         0.380388      -0.081234
                                                         1.169596      -0.994066
                                                         5.033151       0.014231
                          1       4    3py               0.162491       0.166510
                                                         0.380388      -0.081234
                                                         1.169596      -0.994066
                                                         5.033151       0.014231
                          1       4    3pz               0.162491       0.166510
                                                         0.380388      -0.081234
                                                         1.169596      -0.994066
                                                         5.033151       0.014231

                          2       1    1s              130.709321       4.251922
                                                        23.808866       4.112298
                                                         6.443608       1.281622

     RI Auxiliary Basis Set             RI_aug-SZV-MOLOPT-ae-mini_N_RI_047_s_p_d

       Number of orbital shell sets:                                          17
       Number of orbital shells:                                              17
       Number of primitive Cartesian functions:                               17
       Number of Cartesian basis functions:                                   52
       Number of spherical basis functions:                                   47
       Norm type:                                                              2

       Normalised Cartesian orbitals:

                        Set   Shell   Orbital            Exponent    Coefficient

                          1       1    1s                0.406227       0.362649

                          2       1    8px               0.406227       0.462276
                          2       1    8py               0.406227       0.462276
                          2       1    8pz               0.406227       0.462276

                          3       1   13dx2              0.406228       0.340217
                          3       1   13dxy              0.406228       0.589273
                          3       1   13dxz              0.406228       0.589273
                          3       1   13dy2              0.406228       0.340217
                          3       1   13dyz              0.406228       0.589273
                          3       1   13dz2              0.406228       0.340217

                          4       1    2s                0.672857       0.529483

                          5       1    9px               0.865963       1.190732
                          5       1    9py               0.865963       1.190732
                          5       1    9pz               0.865963       1.190732

                          6       1   14dx2              0.865963       1.279479
                          6       1   14dxy              0.865963       2.216122
                          6       1   14dxz              0.865963       2.216122
                          6       1   14dy2              0.865963       1.279479
                          6       1   14dyz              0.865963       2.216122
                          6       1   14dz2              0.865963       1.279479

                          7       1    3s                1.114489       0.773067

                          8       1    4s                1.845989       1.128709

                          9       1   10px               1.845989       3.067089
                          9       1   10py               1.845989       3.067089
                          9       1   10pz               1.845989       3.067089

                         10       1   15dx2              1.845989       4.811830
                         10       1   15dxy              1.845989       8.334333
                         10       1   15dxz              1.845989       8.334333
                         10       1   15dy2              1.845989       4.811830
                         10       1   15dyz              1.845989       8.334333
                         10       1   15dz2              1.845989       4.811830

                         11       1    5s                3.057611       1.647960

                         12       1   11px               3.935128       7.900211
                         12       1   11py               3.935128       7.900211
                         12       1   11pz               3.935128       7.900211

                         13       1   16dx2              3.935128      18.096203
                         13       1   16dxy              3.935128      31.343543
                         13       1   16dxz              3.935128      31.343543
                         13       1   16dy2              3.935128      18.096203
                         13       1   16dyz              3.935128      31.343543
                         13       1   16dz2              3.935128      18.096203

                         14       1    6s                5.064487       2.406089

                         15       1    7s                8.388585       3.512988

                         16       1   12px               8.388585      20.349370
                         16       1   12py               8.388585      20.349370
                         16       1   12pz               8.388585      20.349370

                         17       1   17dx2              8.388585      68.055730
                         17       1   17dxy              8.388585     117.875982
                         17       1   17dxz              8.388585     117.875982
                         17       1   17dy2              8.388585      68.055730
                         17       1   17dyz              8.388585     117.875982
                         17       1   17dz2              8.388585      68.055730

       Atomic covalent radius [Angstrom]:                                  0.730

       Atomic van der Waals radius [Angstrom]:                             1.520

     The atoms of this atomic kind are PAW atoms (GAPW):
       Hard Gaussian function radius:                                      1.512
       Rho0 radius:                                                        1.512
       Maximum GTO radius used for PAW projector construction:            24.566

     GAPW Soft Basis Set                             aug-SZV-MOLOPT-ae-mini_soft

       Number of orbital shell sets:                                           2
       Number of orbital shells:                                               5
       Number of primitive Cartesian functions:                                3
       Number of Cartesian basis functions:                                    9
       Number of spherical basis functions:                                    9
       Norm type:                                                              2

       Normalised Cartesian orbitals:

                        Set   Shell   Orbital            Exponent    Coefficient

                          1       1    1s                0.162491       0.000000
                                                         0.380388       0.241685
                                                         1.169596       0.320234

                          1       2    2s                0.162491       0.289618
                                                         0.380388      -0.257800
                                                         1.169596      -0.000000

                          1       3    2px               0.162491       0.000000
                                                         0.380388       0.166902
                                                         1.169596       1.053568
                          1       3    2py               0.162491       0.000000
                                                         0.380388       0.166902
                                                         1.169596       1.053568
                          1       3    2pz               0.162491       0.000000
                                                         0.380388       0.166902
                                                         1.169596       1.053568

                          1       4    3px               0.162491       0.166510
                                                         0.380388      -0.081234
                                                         1.169596      -0.994066
                          1       4    3py               0.162491       0.166510
                                                         0.380388      -0.081234
                                                         1.169596      -0.994066
                          1       4    3pz               0.162491       0.166510
                                                         0.380388      -0.081234
                                                         1.169596      -0.994066

                          2       1    1s         

     AE Potential information for                                            ALL

       Description:                                       All-electron potential
                                          Krack, Parrinello, PCCP 2, 2105 (2000)

       Gaussian exponent of the core charge distribution:               8.154466
       Electronic configuration (s p d ...):                           4   4   0


 MOLECULE KIND INFORMATION


 All atoms are their own molecule, skipping detailed information


 TOTAL NUMBERS AND MAXIMUM NUMBERS

  Total number of            - Atomic kinds:                                   2
                             - Atoms:                                          3
                             - Shell sets:                                     6
                             - Shells:                                        15
                             - Primitive Cartesian functions:                 21
                             - Cartesian basis functions:                     27
                             - Spherical basis functions:                     27

  Maximum angular momentum of the orbital basis functions:                     1


 MODULE QUICKSTEP: ATOMIC COORDINATES IN ANGSTROM

   Atom Kind Element         X             Y             Z       Z(eff)     Mass
      1    1 C     6     15.000000     15.000000     15.000000   6.0000  12.0107
      2    2 O     8     16.162600     15.000000     15.000000   8.0000  15.9994
      3    2 O     8     13.837400     15.000000     15.000000   8.0000  15.9994



 SCF PARAMETERS         Density guess:                                   RESTART
                        --------------------------------------------------------
                        max_scf:                                             500
                        max_scf_history:                                       0
                        max_diis:                                              4
                        --------------------------------------------------------
                        eps_scf:                                        1.00E-06
                        eps_scf_history:                                0.00E+00
                        eps_diis:                                       0.00E+00
                        eps_eigval:                                     1.00E-05
                        --------------------------------------------------------
                        level_shift [a.u.]:                             0.000000
                        --------------------------------------------------------
                        Outer loop SCF in use 
                        No variables optimised in outer loop
                        eps_scf                                         1.00E-06
                        max_scf                                               20
                        No outer loop optimization
                        step_size                                       5.00E-01

 PW_GRID| Information for grid number                                          1
 PW_GRID| Grid distributed over                                    16 processors
 PW_GRID| Real space group dimensions                                    16    1
 PW_GRID| the grid is blocked:                                                NO
 PW_GRID| Cutoff [a.u.]                                                    250.0
 PW_GRID| spherical cutoff:                                                   NO
 PW_GRID|   Bounds   1           -202     202                Points:         405
 PW_GRID|   Bounds   2           -202     202                Points:         405
 PW_GRID|   Bounds   3           -202     202                Points:         405
 PW_GRID| Volume element (a.u.^3)  0.2743E-02     Volume (a.u.^3)    182205.0337
 PW_GRID| Grid span                                                    FULLSPACE
 PW_GRID|   Distribution                         Average         Max         Min
 PW_GRID|   G-Vectors                          4151882.8     4152060     4151655
 PW_GRID|   G-Rays                               10251.6       10252       10251
 PW_GRID|   Real Space Points                  4151882.8     4264650     4100625

 PW_GRID| Information for grid number                                          2
 PW_GRID| Number of the reference grid                                         1
 PW_GRID| Grid distributed over                                    16 processors
 PW_GRID| Real space group dimensions                                    16    1
 PW_GRID| the grid is blocked:                                                NO
 PW_GRID| Cutoff [a.u.]                                                     83.3
 PW_GRID| spherical cutoff:                                                   NO
 PW_GRID|   Bounds   1           -120     119                Points:         240
 PW_GRID|   Bounds   2           -120     119                Points:         240
 PW_GRID|   Bounds   3           -120     119                Points:         240
 PW_GRID| Volume element (a.u.^3)  0.1318E-01     Volume (a.u.^3)    182205.0337
 PW_GRID| Grid span                                                    FULLSPACE
 PW_GRID|   Distribution                         Average         Max         Min
 PW_GRID|   G-Vectors                           864000.0      864720      863520
 PW_GRID|   G-Rays                                3600.0        3603        3598
 PW_GRID|   Real Space Points                   864000.0      864000      864000

 PW_GRID| Information for grid number                                          3
 PW_GRID| Number of the reference grid                                         1
 PW_GRID| Grid distributed over                                    16 processors
 PW_GRID| Real space group dimensions                                    16    1
 PW_GRID| the grid is blocked:                                                NO
 PW_GRID| Cutoff [a.u.]                                                     27.8
 PW_GRID| spherical cutoff:                                                   NO
 PW_GRID|   Bounds   1            -67      67                Points:         135
 PW_GRID|   Bounds   2            -67      67                Points:         135
 PW_GRID|   Bounds   3            -67      67                Points:         135
 PW_GRID| Volume element (a.u.^3)  0.7406E-01     Volume (a.u.^3)    182205.0337
 PW_GRID| Grid span                                                    FULLSPACE
 PW_GRID|   Distribution                         Average         Max         Min
 PW_GRID|   G-Vectors                           153773.4      154170      153630
 PW_GRID|   G-Rays                                1139.1        1142        1138
 PW_GRID|   Real Space Points                   153773.4      164025      145800

 PW_GRID| Information for grid number                                          4
 PW_GRID| Number of the reference grid                                         1
 PW_GRID| Grid distributed over                                    16 processors
 PW_GRID| Real space group dimensions                                    16    1
 PW_GRID| the grid is blocked:                                                NO
 PW_GRID| Cutoff [a.u.]                                                      9.3
 PW_GRID| spherical cutoff:                                                   NO
 PW_GRID|   Bounds   1            -40      39                Points:          80
 PW_GRID|   Bounds   2            -40      39                Points:          80
 PW_GRID|   Bounds   3            -40      39                Points:          80
 PW_GRID| Volume element (a.u.^3)  0.3559         Volume (a.u.^3)    182205.0337
 PW_GRID| Grid span                                                    FULLSPACE
 PW_GRID|   Distribution                         Average         Max         Min
 PW_GRID|   G-Vectors                            32000.0       32240       31840
 PW_GRID|   G-Rays                                 400.0         403         398
 PW_GRID|   Real Space Points                    32000.0       32000       32000

 POISSON| Solver                                                         WAVELET
 POISSON| Wavelet| Scaling function                                           40
 POISSON| Periodicity                                                       NONE

 RS_GRID| Information for grid number                                          1
 RS_GRID|   Bounds   1           -202     202                Points:         405
 RS_GRID|   Bounds   2           -202     202                Points:         405
 RS_GRID|   Bounds   3           -202     202                Points:         405
 RS_GRID| Real space distribution over                                  4 groups
 RS_GRID| Real space distribution along direction                              2
 RS_GRID| Border size                                                         32
 RS_GRID| Real space distribution over                                  4 groups
 RS_GRID| Real space distribution along direction                              3
 RS_GRID| Border size                                                         32
 RS_GRID|   Distribution                         Average         Max         Min
 RS_GRID|   Planes                                 165.2         166         165
 RS_GRID|   Distribution                         Average         Max         Min
 RS_GRID|   Planes                                 165.2         166         165

 RS_GRID| Information for grid number                                          2
 RS_GRID|   Bounds   1           -120     119                Points:         240
 RS_GRID|   Bounds   2           -120     119                Points:         240
 RS_GRID|   Bounds   3           -120     119                Points:         240
 RS_GRID| Real space distribution over                                  4 groups
 RS_GRID| Real space distribution along direction                              2
 RS_GRID| Border size                                                         34
 RS_GRID| Real space distribution over                                  4 groups
 RS_GRID| Real space distribution along direction                              3
 RS_GRID| Border size                                                         34
 RS_GRID|   Distribution                         Average         Max         Min
 RS_GRID|   Planes                                 128.0         128         128
 RS_GRID|   Distribution                         Average         Max         Min
 RS_GRID|   Planes                                 128.0         128         128

 RS_GRID| Information for grid number                                          3
 RS_GRID|   Bounds   1            -67      67                Points:         135
 RS_GRID|   Bounds   2            -67      67                Points:         135
 RS_GRID|   Bounds   3            -67      67                Points:         135
 RS_GRID| Real space fully replicated
 RS_GRID| Group size                                                           1

 RS_GRID| Information for grid number                                          4
 RS_GRID|   Bounds   1            -40      39                Points:          80
 RS_GRID|   Bounds   2            -40      39                Points:          80
 RS_GRID|   Bounds   3            -40      39                Points:          80
 RS_GRID| Real space fully replicated
 RS_GRID| Group size                                                           1

  HFX_INFO| Replica ID:                                                        1
  HFX_INFO| FRACTION:                                               0.2500000000
  HFX_INFO| Interaction Potential:                                       COULOMB
  HFX_INFO| EPS_SCHWARZ:                                                 1.0E-10
  HFX_INFO| EPS_SCHWARZ_FORCES                                           1.0E-08
  HFX_INFO| EPS_STORAGE_SCALING:                                         1.0E+00
  HFX_INFO| NBINS:                                                            64
  HFX_INFO| BLOCK_SIZE:                                                        1
  HFX_INFO| Number of periodic shells considered:                           NONE
  HFX_INFO| Number of periodic cells considered:                            NONE


 OVERLAP MATRIX CONDITION NUMBER
 1-Norm Condition Number (Estimate)
   CN : |A|*|A^-1|:  6.075E+000 *  3.821E+002   = 2.321E+003  Log(1-CN):  3.3657
 1-Norm and 2-Norm Condition Numbers using Diagonalization
   CN : |A|*|A^-1|:  6.075E+000 *  3.821E+002   = 2.321E+003  Log(1-CN):  3.3657
   CN : max/min ev:  3.984E+000 /  4.466E-003   = 8.920E+002  Log(2-CN):  2.9504

 Number of electrons:                                                         22
 Number of occupied orbitals:                                                 11
 Number of molecular orbitals:                                                11

 Number of orbital functions:                                                 27
 Number of independent orbital functions:                                     27

 Extrapolation method: initial_guess


 SCF WAVEFUNCTION OPTIMIZATION

  ----------------------------------- OT ---------------------------------------
  Minimizer      : CG                  : conjugate gradient
  Preconditioner : FULL_SINGLE_INVERSE : inversion of 
                                         H + eS - 2*(Sc)(c^T*H*c+const)(Sc)^T
  Precond_solver : DEFAULT
  Line search    : 3PNT                : 3 energies
  stepsize       :    0.08000000                  energy_gap     :    0.08000000
  eps_taylor     :   0.10000E-15                  max_taylor     :             4
  ----------------------------------- OT ---------------------------------------

  Step     Update method      Time    Convergence         Total energy    Change
  ------------------------------------------------------------------------------

  HFX_MEM_INFO| Est. max. program size before HFX [MiB]:                    2319
  HFX_MEM_INFO| Number of cart. primitive ERI's calculated:              2573959
  HFX_MEM_INFO| Number of sph. ERI's calculated:                          137215
  HFX_MEM_INFO| Number of sph. ERI's stored in-core:                      137215
  HFX_MEM_INFO| Number of sph. ERI's stored on disk:                           0
  HFX_MEM_INFO| Number of sph. ERI's calculated on the fly:                    0
  HFX_MEM_INFO| Total memory consumption ERI's RAM [MiB]:                      1
  HFX_MEM_INFO| Whereof max-vals [MiB]:                                        1
  HFX_MEM_INFO| Total compression factor ERI's RAM:                         1.21
  HFX_MEM_INFO| Total memory consumption ERI's disk [MiB]:                     0
  HFX_MEM_INFO| Total compression factor ERI's disk:                        0.00
  HFX_MEM_INFO| Size of density/Fock matrix [MiB]:                             0
  HFX_MEM_INFO| Size of buffers [MiB]:                                         0
  HFX_MEM_INFO| Est. max. program size after HFX  [MiB]:                    2859

     1 OT CG       0.64E-01    3.9     0.00000136      -186.1412125253 -1.86E+02
     - OT LS       0.32E-01    2.1                     -186.1412125252
     - OT LS       0.21E-01    2.1                     -186.1412125253
     2 OT CG       0.16E-01    3.0     0.00000084      -186.1412125253 -5.71E-12

  *** SCF run converged in     2 steps ***


  Electronic density on regular grids:        -15.8163054471        6.1836945529
  Core density on regular grids:               22.0000000000        0.0000000000
  Hard and soft densities (Lebedev):          -39.2463142877      -33.0626232161
  Total Rho_soft + Rho1_hard - Rho1_soft      -21.9999965187
  Total charge density (r-space):               0.0000034813
  Total Rho_soft + Rho0_soft (g-space):         0.0000033059

  Overlap energy of the core charge distribution:               0.00001227858523
  Self energy of the core charge distribution:               -174.93298707478829
  Core Hamiltonian energy:                                    -20.40354536786047
  Hartree energy:                                              34.01001552098013
  Exchange-correlation energy:                                 -6.35813303528067
  Hartree-Fock Exchange energy:                                -5.33249472524671

  GAPW| Exc from hard and soft atomic rho1:                   -10.35733022321768
  GAPW| local Eh = 1 center integrals:                         -2.76674989843820

  Total energy:                                              -186.14121252526667

  outer SCF iter =    1 RMS gradient =   0.84E-06 energy =       -186.1412125253
  outer SCF loop converged in   1 iterations or    4 steps


 !-----------------------------------------------------------------------------!
                     Mulliken Population Analysis

 #  Atom  Element  Kind  Atomic population                           Net charge
       1     C        1          4.446704                              1.553296
       2     O        2          8.776648                             -0.776648
       3     O        2          8.776648                             -0.776648
 # Total charge                             22.000000                 -0.000000

 !-----------------------------------------------------------------------------!

 !-----------------------------------------------------------------------------!
                           Hirshfeld Charges

  #Atom  Element  Kind  Ref Charge     Population                    Net charge
      1       C      1       6.000          5.368                         0.632
      2       O      2       8.000          8.316                        -0.316
      3       O      2       8.000          8.316                        -0.316

  Total Charge                                                            0.001
 !-----------------------------------------------------------------------------!

 *******************************************************************************
 **                                                                           **
 **         ######## #######   #######   ######## #######  ########           **
 **            ##    ##     ## ##     ## ##       ##   ##     ##              **
 **            ##    ##     ## ##     ## ######   #######     ##              **
 **            ##    ##     ## ##     ## ##       ##          ##              **
 **            ##    #######   #######   ##       ##          ##              **
 **                                                                           **
 *******************************************************************************
 KERNEL|                                                                    FULL
 FUNCTIONAL| PBE:
 FUNCTIONAL| J.P.Perdew, K.Burke, M.Ernzerhof, Phys. Rev. Letter, vol. 77, n 18,
 FUNCTIONAL|  pp. 3865-3868, (1996)sx=0.750sc=1.000{spin unpolarized}           
 KERNEL|                                                          Exact Exchange
 KERNEL| Spin symmetry of excitations                                    Singlet
 TDDFPT| Number of states calculated                                          20
 TDDFPT| Number of Davidson iterations                                       100
 TDDFPT| Davidson iteration convergence                                0.367E-07
 TDDFPT| Max. number of Krylov space vectors                                5000
 TDDFPT| Molecular Orbitals:        Spin       AOs       Occ      Virt     Total
 TDDFPT|                               1        27        11        16        27
 
 -------------------------------------------------------------------------------
 -                            TDDFPT Initial Guess                             -
 -------------------------------------------------------------------------------
          State         Occupied      ->      Virtual          Excitation
          number         orbital              orbital          energy (eV)
 -------------------------------------------------------------------------------
             1               11                   12             11.16600
             2               11                   13             11.16600
             3               10                   12             11.16600
             4               10                   13             11.16600
             5               11                   14             13.35986
             6               10                   14             13.35986
             7                9                   12             14.98879
             8                9                   13             14.98879
             9                8                   12             15.51901
            10                8                   13             15.51901
            11                7                   12             15.51901
            12                7                   13             15.51901
            13                6                   12             16.23927
            14                6                   13             16.23927
            15                9                   14             17.18266
            16                8                   14             17.71287
            17                7                   14             17.71287
            18                6                   14             18.43313
            19               11                   15             20.82486
            20               10                   15             20.82486

      Number of active states:                                        176
 -------------------------------------------------------------------------------
 
 -------------------------------------------------------------------------------
 -                      TDDFPT WAVEFUNCTION OPTIMIZATION                       -
 -------------------------------------------------------------------------------

          Step            Time         Convergence           Conv. states
 -------------------------------------------------------------------------------

    State    Exc. energy (eV)      Convergence (eV)
        1       8.4646256            -2.7014E+00
        2       8.8374259            -2.3286E+00
        3       8.8374260            -2.3286E+00
        4      11.1048214            -6.1178E-02
        5      11.1048214            -2.2550E+00
        6      12.6221150            -7.3775E-01
        7      13.0049608            -1.9838E+00
        8      13.0049651            -1.9838E+00
        9      13.0411965            -2.4778E+00
       10      13.0411965            -2.4778E+00
       11      14.0304164            -1.4886E+00
       12      14.8469609            -6.7204E-01
       13      14.8469609            -1.3923E+00
       14      15.8860884            -3.5318E-01
       15      16.3401853            -8.4247E-01
       16      16.3401853            -1.3727E+00
       17      19.0673721             1.3545E+00
       18      19.0673721             6.3424E-01
       19      21.0805429             2.5568E-01
       20      21.7962978             9.7143E-01

             1            59.9          9.9274E-02                      0

    State    Exc. energy (eV)      Convergence (eV)
        1       8.4540271            -1.0599E-02
        2       8.8348182            -2.6077E-03
        3       8.8348183            -2.6077E-03
        4      11.0718873            -3.2934E-02
        5      11.0718873            -3.2934E-02
        6      12.6050302            -1.7085E-02
        7      12.9665794            -3.8381E-02
        8      12.9665794            -3.8386E-02
        9      12.9995487            -4.1648E-02
       10      12.9995532            -4.1643E-02
       11      13.4996072            -5.3081E-01
       12      14.7878237            -5.9137E-02
       13      14.7878237            -5.9137E-02
       14      15.6564829            -2.2961E-01
       15      16.2878119            -5.2373E-02
       16      16.2878119            -5.2373E-02
       17      17.1150615            -1.9523E+00
       18      18.6214756            -4.4590E-01
       19      19.0162256            -2.0643E+00
       20      19.0162256            -2.7801E+00

             2            59.2          1.0217E-01                      0

    State    Exc. energy (eV)      Convergence (eV)
        1       8.4540181            -9.0009E-06
        2       8.8348178            -3.3760E-07
        3       8.8348179            -3.3760E-07
        4      11.0717348            -1.5251E-04
        5      11.0717348            -1.5251E-04
        6      12.6050137            -1.6459E-05
        7      12.9664566            -1.2274E-04
        8      12.9664566            -1.2274E-04
        9      12.9995416            -7.1568E-06
       10      12.9995461            -7.1566E-06
       11      13.4960386            -3.5685E-03
       12      14.7876917            -1.3209E-04
       13      14.7876917            -1.3209E-04
       14      15.6476086            -8.8743E-03
       15      16.2875267            -2.8522E-04
       16      16.2875267            -2.8522E-04
       17      17.0421361            -7.2925E-02
       18      18.5439874            -7.7488E-02
       19      19.0159802            -2.4543E-04
       20      19.0159802            -2.4543E-04

             3            59.4          2.8476E-03                      2

    State    Exc. energy (eV)      Convergence (eV)
        1       8.4540181            -6.3073E-09
        2       8.8348178            -4.5184E-10
        3       8.8348179            -4.5187E-10
        4      11.0717346            -2.5010E-07
        5      11.0717346            -2.5010E-07
        6      12.6050137            -3.8352E-08
        7      12.9664565            -8.1885E-08
        8      12.9664565            -8.1885E-08
        9      12.9995416            -5.1005E-09
       10      12.9995460            -5.0994E-09
       11      13.4960283            -1.0336E-05
       12      14.7876915            -1.1459E-07
       13      14.7876915            -1.1459E-07
       14      15.6475493            -5.9260E-05
       15      16.2875265            -2.4916E-07
       16      16.2875265            -2.4916E-07
       17      17.0416506            -4.8544E-04
       18      18.5431641            -8.2321E-04
       19      19.0159796            -5.3744E-07
       20      19.0159796            -5.3744E-07

             4            59.6          3.0252E-05                     16

    State    Exc. energy (eV)      Convergence (eV)
        1       8.4540181             0.0000E+00
        2       8.8348178             6.0421E-15
        3       8.8348179             7.5527E-15
        4      11.0717346            -2.6476E-10
        5      11.0717346            -2.6483E-10
        6      12.6050137             1.2084E-14
        7      12.9664565            -3.2104E-10
        8      12.9664565            -3.2098E-10
        9      12.9995416            -2.7190E-14
       10      12.9995460             1.9637E-14
       11      13.4960283            -1.1726E-08
       12      14.7876915            -5.7560E-10
       13      14.7876915            -5.7565E-10
       14      15.6475492            -1.3010E-07
       15      16.2875265            -1.0181E-09
       16      16.2875265            -1.0180E-09
       17      17.0416489            -1.7036E-06
       18      18.5431600            -4.1220E-06
       19      19.0159796            -2.0695E-09
       20      19.0159796            -2.0697E-09

             5            59.9          1.5148E-07                     18

    State    Exc. energy (eV)      Convergence (eV)
        1       8.4540181             1.3595E-14
        2       8.8348178            -2.7190E-14
        3       8.8348179            -1.5105E-15
        4      11.0717346            -4.9999E-13
        5      11.0717346            -4.6373E-13
        6      12.6050137             1.5105E-15
        7      12.9664565            -5.6796E-13
        8      12.9664565            -6.5708E-13
        9      12.9995416             4.5316E-15
       10      12.9995460            -3.6253E-14
       11      13.4960283            -5.1117E-12
       12      14.7876915            -7.5527E-14
       13      14.7876915            -1.1782E-13
       14      15.6475492            -1.3952E-10
       15      16.2875265            -2.2054E-13
       16      16.2875265            -3.1721E-13
       17      17.0416489            -1.5019E-09
       18      18.5431600            -5.1208E-09
       19      19.0159796            -7.9756E-13
       20      19.0159796            -7.6433E-13

             6            59.8          1.8819E-10                     20
 
 -------------------------------------------------------------------------------
 -  TDDFPT run converged in 6 iteration(s) 
 -------------------------------------------------------------------------------

 R-TDDFPT states of multiplicity 1
 Transition dipoles calculated using velocity formulation

         State    Excitation        Transition dipole (a.u.)        Oscillator
         number   energy (eV)       x           y           z     strength (a.u.)
         ------------------------------------------------------------------------
 TDDFPT|      1       8.45402   1.3741E-14 -2.2362E-14  1.1570E-14   1.70402E-28
 TDDFPT|      2       8.83482  -2.8458E-14 -7.4064E-15  2.4221E-15   1.88435E-28
 TDDFPT|      3       8.83482   3.1682E-14 -1.0002E-14 -1.8344E-15   2.39637E-28
 TDDFPT|      4      11.07173   2.8906E-11  6.4314E-11  1.3654E-11   1.39920E-21
 TDDFPT|      5      11.07173   8.0010E-11 -5.5325E-11 -5.6051E-12   2.57524E-21
 TDDFPT|      6      12.60501   1.9951E-14  2.9213E-15 -4.5141E-15   1.31848E-28
 TDDFPT|      7      12.96646   8.6176E-11  1.3477E-11  6.7101E-12   2.43112E-21
 TDDFPT|      8      12.96646  -2.6405E-11  4.9641E-12 -1.5165E-12   2.30046E-22
 TDDFPT|      9      12.99954   1.7898E-14  6.3456E-14  6.0004E-14   2.53115E-27
 TDDFPT|     10      12.99955   8.0808E-14 -7.5682E-14  7.7063E-14   5.79524E-27
 TDDFPT|     11      13.49603  -4.0804E-01  4.3483E-11 -2.0624E-11   5.50504E-02
 TDDFPT|     12      14.78769   1.5830E-11  2.7854E-01  2.3291E-01   4.77615E-02
 TDDFPT|     13      14.78769   4.3301E-12  2.3291E-01 -2.7854E-01   4.77615E-02
 TDDFPT|     14      15.64755   1.8316E-09  3.2887E-10 -2.3012E-10   1.34784E-18
 TDDFPT|     15      16.28753   3.9778E-11  6.7419E-01  6.1148E-01   3.30581E-01
 TDDFPT|     16      16.28753  -2.3512E-11  6.1148E-01 -6.7419E-01   3.30581E-01
 TDDFPT|     17      17.04165   1.7062E+00 -2.9695E-10 -2.0598E-09   1.21548E+00
 TDDFPT|     18      18.54316  -1.8779E-08  1.1523E-09  7.5727E-10   1.61078E-16
 TDDFPT|     19      19.01598  -1.3221E-10 -5.3850E-01 -2.9889E-01   1.76719E-01
 TDDFPT|     20      19.01598  -1.7934E-10 -2.9889E-01  5.3850E-01   1.76719E-01

 TDDFPT : CheckSum  =  0.234109E+01
 
 -------------------------------------------------------------------------------
 -                            Excitation analysis                              -
 -------------------------------------------------------------------------------
        State             Occupied              Virtual             Excitation
        number             orbital              orbital             amplitude
 -------------------------------------------------------------------------------
             1   8.45402 eV
                                11                   12              -0.706933
                                10                   13               0.706933
             2   8.83482 eV
                                11                   13               0.706974
                                10                   12              -0.706974
             3   8.83482 eV
                                10                   13              -0.706974
                                11                   12              -0.706974
             4  11.07173 eV
                                11                   14              -0.885941
                                10                   14              -0.459127
             5  11.07173 eV
                                10                   14              -0.885941
                                11                   14               0.459127
             6  12.60501 eV
                                 8                   12              -0.706679
                                 7                   13              -0.706679
             7  12.96646 eV
                                 9                   12               0.995953
                                 5                   12              -0.052090
                                 9                   13               0.050865
             8  12.96646 eV
                                 9                   13               0.995953
                                 5                   13              -0.052090
                                 9                   12              -0.050865
             9  12.99954 eV
                                 8                   13              -0.706631
                                 7                   12              -0.706631
            10  12.99955 eV
                                 7                   13              -0.706631
                                 8                   12               0.706631
            11  13.49603 eV
                                 9                   14              -0.704926
                                10                   12              -0.478456
                                11                   13              -0.478456
                                 9                   16              -0.150861
                                10                   17              -0.067004
                                11                   18               0.067004
                                 5                   14               0.059065
                                 6                   15               0.051374
            12  14.78769 eV
                                 6                   13              -0.855291
                                 8                   14              -0.504061
                                 6                   12              -0.083858
                                 7                   14               0.057096
            13  14.78769 eV
                                 6                   12              -0.855291
                                 7                   14               0.504061
                                 6                   13               0.083858
                                 8                   14               0.057096
            14  15.64755 eV
                                 6                   14              -0.824072
                                 7                   12               0.388664
                                 8                   13              -0.388664
                                 6                   16              -0.102076
                                 9                   25              -0.051916
            15  16.28753 eV
                                 8                   14               0.857403
                                 6                   13              -0.505642
                                 7                   14              -0.062298
                                11                   22               0.050206
            16  16.28753 eV
                                 7                   14              -0.857403
                                 6                   12              -0.505642
                                 8                   14              -0.062298
                                10                   22               0.050206
            17  17.04165 eV
                                 9                   14              -0.681057
                                10                   12               0.408110
                                11                   13               0.408110
                                 9                   16               0.241974
                                10                   17               0.204807
                                11                   18              -0.204807
                                 6                   15              -0.186894
                                 5                   14              -0.085974
                                 7                   20              -0.071435
                                 8                   21              -0.071435
            18  18.54316 eV
                                 6                   14              -0.546653
                                 7                   12              -0.518672
                                 8                   13               0.518672
                                 6                   16               0.280261
                                 9                   15              -0.143250
                                 9                   22               0.104841
                                 9                   25               0.087239
                                 8                   18               0.082328
                                 7                   17               0.082328
                                11                   21              -0.079957
                                10                   20               0.079957
                                 4                   14              -0.064979
                                 5                   25              -0.050696
                                 6                   19              -0.050580
            19  19.01598 eV
                                11                   15              -0.955332
                                10                   15              -0.280984
                                 8                   16               0.078289
            20  19.01598 eV
                                10                   15              -0.955332
                                11                   15               0.280984
                                 7                   16              -0.078289
 -------------------------------------------------------------------------------
 
 -------------------------------------------------------------------------------
 -                            Natural Orbital analysis                         -
 -------------------------------------------------------------------------------
   STATE NR.      1             8.45402 eV
     Particle-Hole state: 1   Spin:1     Eigenvalue: 0.49990   Sum Eigv: 0.49990
     Particle-Hole state: 2   Spin:1     Eigenvalue: 0.49990   Sum Eigv: 0.99981
   STATE NR.      2             8.83482 eV
     Particle-Hole state: 1   Spin:1     Eigenvalue: 0.49997   Sum Eigv: 0.49997
     Particle-Hole state: 2   Spin:1     Eigenvalue: 0.49997   Sum Eigv: 0.99995
   STATE NR.      3             8.83482 eV
[...]
 
 T. D. Kuehne, M. Iannuzzi, M. Del Ben, V. V. Rybkin, P. Seewald, F. Stein, T. 
 Laino, R. Z. Khaliullin, O. Schuett, F. Schiffmann, D. Golze, J. Wilhelm, S. 
 Chulkov, M. H. Bani-Hashemian, V. Weber, U. Borstnik, M. Taillefumier, A. S. 
 Jakobovits, A. Lazzaro, H. Pabst, T. Mueller, R. Schade, M. Guidon, S. 
 Andermatt, N. Holmberg, G. K. Schenter, A. Hehn, A. Bussy, F. Belleflamme, G. 
 Tabacchi, A. Gloess, M. Lass, I. Bethune, C. J. Mundy, C. Plessl, M. Watkins, 
 J. VandeVondele, M. Krack, J. Hutter.
 J. Chem. Phys. 152, 194103 (2020).
 CP2K: An electronic structure and molecular dynamics software package - 
 Quickstep: Efficient and accurate electronic structure calculations.
 https://doi.org/10.1063/5.0007045

 O. Schuett, P. Messmer, J. Hutter, J. VandeVondele.
 Electronic Structure Calculations on Graphics Processing Units, 173-190 (2016).
 GPU-Accelerated Sparse Matrix-Matrix Multiplication for Linear Scaling Density 
 Functional Theory.
 https://doi.org/10.1002/9781118670712.ch8

 A. Heinecke, G. Henry, M. Hutchinson, H. Pabst.
 Proceedings of Intl. Supercomputing Conference, 981-991 (2016).
 LIBXSMM: Accelerating Small Matrix Multiplications by Runtime Code Generation.
 https://doi.org/10.1109/SC.2016.83

 J. Hutter, M. Iannuzzi, F. Schiffmann, J. VandeVondele.
 WIREs Comput Mol Sci. 4, 15-25 (2014).
 CP2K: atomistic simulations of condensed matter systems.
 https://doi.org/10.1002/wcms.1159

 U. Borstnik, J. VandeVondele, V. Weber, J. Hutter.
 Parallel Comput. 40, 47-58 (2014).
 Sparse matrix multiplication: The distributed block-compressed sparse row 
 library.
 https://doi.org/10.1016/j.parco.2014.03.012

 A. Marek, V. Blum, R. Johanni, V. Havu, B. Lang, T. Auckenthaler, A. Heinecke, 
 H. Bungartz, H. Lederer.
 J. Phys. Condens. Matter 26, 213201 (2014).
 The ELPA library: scalable parallel eigenvalue solutions for electronic 
 structure theory and computational science.
 https://doi.org/10.1088/0953-8984/26/21/213201

 M. Guidon, J. Hutter, J. VandeVondele.
 J. Chem. Theory Comput. 5, 3010-3021 (2009).
 Robust Periodic Hartree-Fock Exchange for Large-Scale Simulations Using 
 Gaussian Basis Sets.
 https://doi.org/10.1021/ct900494g

 M. Guidon, F. Schiffmann, J. Hutter, J. VandeVondele.
 J. Chem. Phys. 128, 214104 (2008).
 Ab initio molecular dynamics using hybrid density functionals.
 https://doi.org/10.1063/1.2931945

 L. Genovese, T. Deutsch, S. Goedecker.
 J. Chem. Phys. 127, 054704 (2007).
 Efficient and accurate three-dimensional Poisson solver for surface problems.
 https://doi.org/10.1063/1.2754685

 J. VandeVondele, J. Hutter.
 J. Chem. Phys. 127, 114105 (2007).
 Gaussian basis sets for accurate calculations on molecular systems in gas and 
 condensed phases.
 https://doi.org/10.1063/1.2770708

 L. Genovese, T. Deutsch, A. Neelov, S. Goedecker, G. Beylkin.
 J. Chem. Phys. 125, 074105 (2006).
 Efficient solution of Poisson's equation with free boundary conditions.
 https://doi.org/10.1063/1.2335442

 M. Iannuzzi, T. Chassaing, T. Wallman, J. Hutter.
 CHIMIA 59, 499-503 (2005).
 Ground and excited state density functional calculations with the Gaussian and 
 augmented-plane-wave method.
 https://doi.org/10.2533/000942905777676164

 M. Frigo, S. G. Johnson.
 Proc. IEEE 93, 216-231 (2005).
 The design and implementation of FFTW3.
 https://doi.org/10.1109/JPROC.2004.840301

 J. VandeVondele, J. Hutter.
 J. Chem. Phys. 118, 4365-4369 (2003).
 An efficient orbital transformation method for electronic structure 
 calculations.
 https://doi.org/10.1063/1.1543154

 R. L. Martin.
 J. Chem. Phys. 118, 4775-4777 (2003).
 Natural transition orbitals.
 https://doi.org/10.1063/1.1558471

 M. Krack, M. Parrinello.
 Phys. Chem. Chem. Phys. 2, 2105-2112 (2000).
 All-electron ab-initio molecular dynamics.
 https://doi.org/10.1039/b001167n

 G. Lippert, J. Hutter, M. Parrinello.
 Theor. Chem. Acc. 103, 124-140 (1999).
 The Gaussian and augmented-plane-wave density functional method for ab initio 
 molecular dynamics simulations.
 https://doi.org/10.1007/s002140050523

 J. P. Perdew, K. Burke, M. Ernzerhof.
 Phys. Rev. Lett. 77, 3865-3868 (1996).
 Generalized gradient approximation made simple.
 https://doi.org/10.1103/PhysRevLett.77.3865


 -------------------------------------------------------------------------------
 -                                                                             -
 -                                T I M I N G                                  -
 -                                                                             -
 -------------------------------------------------------------------------------
 SUBROUTINE                       CALLS  ASD         SELF TIME        TOTAL TIME
                                MAXIMUM       AVERAGE  MAXIMUM  AVERAGE  MAXIMUM
 CP2K                                 1  1.0    0.020    0.030  373.027  373.031
 qs_energies                          1  2.0    0.000    0.000  372.116  372.120
 qs_energies_properties               1  3.0    0.000    0.000  359.261  359.265
 tddfpt                               1  4.0    0.001    0.002  359.261  359.265
 tddfpt_energies                      1  5.0    0.000    0.000  359.252  359.256
 tddfpt_davidson_solver               1  6.0    0.000    0.001  357.829  357.833
 tddfpt_compute_Aop_evects            6  7.0    0.000    0.000  357.575  357.578
 fhxc_kernel                          6  8.0    0.004    0.009  352.338  352.341
 fft_wrap_pw1pw2                   2477 11.5    0.049    0.057  188.421  190.218
 fft_wrap_pw1pw2_250               1733 12.5    7.155    7.573  182.492  184.286
 tddfpt_apply_coulomb               120  9.0    0.002    0.002  145.401  145.793
 fft3d_ps                          2477 13.5   64.549   70.238  125.672  129.643
 pw_poisson_solve                   124  9.9    3.820    4.249  128.194  128.366
 tddfpt_apply_xc_analytic           120  9.0    0.572    0.614  107.856  108.361
 xc_pw_derive                       741 11.0    0.005    0.006   86.766   87.504
 ps_wavelet_solve                   124 10.9   69.168   73.391   80.598   80.940
 xc_calc_2nd_deriv_analytical       360 10.3    4.309    4.574   63.117   63.586
 xc_pw_divergence                   122 11.0    0.003    0.003   57.738   58.577
 qs_rho_update_rho_low              126  8.8    0.001    0.002   50.984   50.985
 calculate_rho_elec                 126  9.8    1.958    2.011   50.952   50.953
 mp_alltoall_z22v                  2477 15.5   38.341   47.602   38.341   47.602
 density_rs2pw                      126 10.8    0.005    0.005   40.290   40.819
 mp_alltoall_d54                    124 11.9    7.260   36.293    7.260   36.293
 x_to_yz                           1235 14.1   11.973   12.812   32.281   35.921
 yz_to_x                           1242 14.9   10.767   11.547   28.799   33.432
 integrate_v_rspace                 122  9.0    0.003    0.004   28.896   28.990
 potential_pw2rs                    122 10.0    0.047    0.050   28.840   28.865
 pw_gather_p                       1242 13.9   25.754   28.437   25.754   28.437
 prepare_gapw_den                   125  9.0    0.001    0.001   22.024   22.554
 put_rho0_on_grid                   125 10.0    1.952    2.005   21.953   22.483
 pw_scatter_p                      1235 13.1   21.850   22.294   21.850   22.294
 transfer_pw2rs                     613 11.0    0.008    0.011   18.942   19.629
 mp_waitany                       14940 13.2   13.274   16.861   13.274   16.861
 transfer_rs2pw                     630 11.6    0.012    0.015   15.068   15.711
 transfer_pw2rs_250                 247 12.0    4.644    5.553   13.567   14.895
 transfer_rs2pw_250                 252 12.4    4.381    5.271   10.790   11.676
 scf_env_do_scf                       1  3.0    0.000    0.000   11.516   11.516
 pw_derive                         1113 12.0    9.768   10.257    9.768   10.257
 qs_ks_update_qs_env                  5  5.0    0.000    0.000    9.867    9.867
 rebuild_ks_matrix                    4  6.0    0.000    0.000    9.867    9.867
 qs_ks_build_kohn_sham_matrix         4  7.0    0.001    0.001    9.867    9.867
 grid_collocate_task_list           126 10.8    8.126    8.500    8.126    8.500
 integrate_vhg0_rspace              124  9.9    0.014    0.020    8.454    8.486
 mp_alltoall_d11v                 10135 11.8    4.323    7.873    4.323    7.873
 scf_env_do_scf_inner_loop            4  4.0    0.000    0.000    7.666    7.666
 mp_waitall_1                     63747 14.2    4.572    7.012    4.572    7.012
 cp2k_distribution_to_z_slices      124 10.9    3.178    3.670    5.782    6.401
 fft_wrap_pw1pw2_90                 248 12.4    0.187    0.199    4.978    6.066
 mp_alltoall_d45                    125 11.9    3.434    5.764    3.434    5.764
 pw_copy                           1615 11.1    5.474    5.763    5.474    5.763
 pw_poisson_set                     125 10.9    0.002    0.003    5.207    5.501
 tddfpt_apply_hfx                     6  8.0    0.001    0.001    5.147    5.147
 integrate_four_center              244 10.0    2.416    4.879    5.091    5.114
 pw_copy_to_array                  1242 13.9    4.605    5.024    4.605    5.024
 mp_sync                           1275 11.7    2.469    4.882    2.469    4.882
 tddft_hfx_matrix                   240  9.0    0.002    0.002    4.792    4.808
 pw_axpy                           1358 11.3    4.349    4.609    4.349    4.609
 transfer_pw2rs_90                  122 12.0    0.595    0.683    3.762    4.588
 mp_sum_d                          1549  7.5    2.511    4.443    2.511    4.443
 mp_isend_dm3                      2988 13.2    1.010    4.277    1.010    4.277
 pw_integral_ab_c1d_c1d_gs          124 10.9    2.729    2.937    3.638    4.120
 init_scf_loop                        1  4.0    0.000    0.000    3.849    3.849
 pw_copy_from_array                1235 13.1    3.105    3.256    3.105    3.256
 pw_zero                           1588 10.6    2.997    3.144    2.997    3.144
 transfer_rs2pw_90                  126 12.8    0.550    0.611    2.713    3.003
 rs_grid_zero                       619 12.1    2.641    2.736    2.641    2.736
 qs_vxc_create                        4  8.0    0.000    0.000    2.709    2.709
 mp_isend_dv                      20337 13.7    1.056    2.653    1.056    2.653
 xc_rho_set_and_dset_create           5  9.6    0.072    0.080    2.112    2.267
 mp_irecv_dm3                      2988 13.2    0.290    2.086    0.290    2.086
 mp_sum_dm                         1153 10.8    0.732    1.868    0.732    1.868
 xc_vxc_pw_create                     2  9.0    0.045    0.047    1.849    1.850
 mp_irecv_dv                      19549 13.7    0.284    1.666    0.284    1.666
 transfer_pw2rs_30                  122 12.0    0.497    0.544    1.318    1.610
 mp_max_i                           579  3.9    0.724    1.498    0.724    1.498
 prepare_dr1dr                      360 11.3    1.281    1.459    1.281    1.459
 transfer_rs2pw_30                  126 12.8    0.426    0.505    1.215    1.336
 Vh_1c_gg_integrals                 124  9.9    0.007    0.015    0.576    1.167
 mp_sendrecv_dv                    3780 13.8    1.038    1.133    1.038    1.133
 scale_and_distribute               248 11.9    0.828    1.007    0.828    1.007
 pw_poisson_rebuild                 124 10.9    0.000    0.000    0.981    0.996
 ps_wavelet_create                    1 10.0    0.000    0.000    0.981    0.996
 RS_z_slice_distribution              1 11.0    0.888    0.930    0.981    0.996
 fft_wrap_pw1pw2_30                 248 12.4    0.036    0.038    0.725    0.874
 xc_exc_calc                          2  9.0    0.031    0.032    0.859    0.859
 qs_init_subsys                       1  2.0    0.001    0.001    0.795    0.795
 qs_env_setup                         1  3.0    0.000    0.000    0.793    0.793
 qs_env_rebuild_pw_env                2  3.5    0.000    0.000    0.793    0.793
 pw_env_rebuild                       1  5.0    0.000    0.000    0.793    0.793
 pw_grid_setup                        4  6.0    0.000    0.000    0.790    0.791
 pw_grid_setup_internal               4  7.0    0.011    0.011    0.790    0.791
 copy_dbcsr_to_fm                   796  9.4    0.005    0.005    0.681    0.755
 cp_dbcsr_sm_fm_multiply            767  8.5    0.007    0.008    0.678    0.691
 dbcsr_complete_redistribute       2414 10.6    0.045    0.054    0.650    0.678
 pw_grid_sort                         4  8.0    0.467    0.481    0.650    0.670
 qs_energies_init_hamiltonians        1  3.0    0.000    0.000    0.640    0.640
 build_core_hamiltonian_matrix        1  4.0    0.000    0.000    0.639    0.639
 overlap_condnum                      1  5.0    0.000    0.000    0.638    0.638
 tddfpt_construct_ground_state_       1  6.0    0.000    0.000    0.582    0.587
 create_kernel_env                    1  6.0    0.000    0.000    0.542    0.576
 xc_prep_2nd_deriv                    1  7.0    0.000    0.000    0.542    0.576
 init_scf_run                         1  3.0    0.000    0.000    0.562    0.562
 scf_env_initial_rho_setup            1  4.0    0.000    0.000    0.562    0.562
 sum_up_and_integrate                 2  8.0    0.000    0.000    0.485    0.493
 dbcsr_multiply_generic            1052 10.3    0.019    0.021    0.420    0.429
 pw_scale                           248  9.5    0.339    0.376    0.339    0.376
 transfer_rs2pw_10                  126 12.8    0.088    0.095    0.337    0.369
 transfer_pw2rs_10                  122 12.0    0.089    0.099    0.287    0.353
 mp_alltoall_i22                   3213 11.5    0.306    0.347    0.306    0.347
 mp_alltoall_i11v                  8045 11.5    0.151    0.333    0.151    0.333
 calculate_xc_2nd_deriv_atom        120  9.0    0.028    0.096    0.080    0.319
 hfx_ks_matrix                        4  8.0    0.000    0.000    0.301    0.311
 cp_dbcsr_sm_fm_multiply_core       767  9.5    0.001    0.001    0.301    0.309
 xc_functional_eval                 253 10.9    0.000    0.001    0.108    0.301
 pbe_lda_eval                       253 11.9    0.108    0.300    0.108    0.300
 dbcsr_desymmetrize_deep            797 10.4    0.007    0.007    0.253    0.257
 copy_fm_to_dbcsr                  1616  9.6    0.004    0.004    0.197    0.225
 fft_wrap_pw1pw2_10                 248 12.4    0.008    0.009    0.177    0.217
 sort_shells                          4  9.0    0.183    0.190    0.183    0.190
 parallel_gemm_fm                  1029  8.3    0.001    0.001    0.161    0.184
 parallel_gemm_fm_cosma            1029  9.3    0.161    0.184    0.161    0.184
 multiply_cannon                   1052 11.3    0.054    0.061    0.166    0.177
 make_m2s                          2104 11.3    0.008    0.009    0.148    0.161
 hybrid_alltoall_any               2901 13.5    0.009    0.011    0.035    0.151
 update_ks_atom                     124  9.0    0.004    0.006    0.087    0.149
 cp_fm_write_unformatted             21  7.0    0.140    0.149    0.140    0.149
 tddfpt_write_restart                 1  6.0    0.009    0.143    0.145    0.146
 mp_bcast_dm                        750 10.0    0.083    0.146    0.083    0.146
 tddfpt_orthonormalize_psi1_psi       7  6.9    0.005    0.005    0.141    0.141
 make_images                       2104 12.3    0.019    0.020    0.127    0.140
 scf_post_calculation_gpw             1  3.0    0.000    0.000    0.138    0.138
 write_available_results              1  4.0    0.000    0.000    0.137    0.138
 write_mo_free_results                1  5.0    0.019    0.019    0.137    0.138
 cp_dbcsr_plus_fm_fm_t              121  9.0    0.001    0.001    0.126    0.128
 gaVxcgb_GC                         122 10.0    0.024    0.128    0.024    0.128
 mp_bcast_b_src                      35  9.2    0.061    0.127    0.061    0.127
 rs_gather_matrices                 122 10.0    0.001    0.002    0.029    0.120
 grid_integrate_task_list           122 10.0    0.023    0.113    0.023    0.113
 mp_isendrecv_dv                  10980 12.3    0.016    0.113    0.016    0.113
 powell_optimize                  70050 11.0    0.104    0.105    0.104    0.105
 cp_fm_diag_elpa                     28  8.0    0.000    0.000    0.103    0.103
 cp_fm_diag_elpa_base                28  9.0    0.072    0.100    0.097    0.100
 tddfpt_print_nto_analysis            1  6.0    0.001    0.002    0.097    0.097
 tddfpt_apply_energy_diff             6  8.0    0.000    0.000    0.090    0.090
 tddfpt_compute_residual_vects        5  7.0    0.000    0.000    0.087    0.087
 xc_2nd_deriv_of_r                  240 10.0    0.002    0.012    0.015    0.084
 pw_grid_assign                       4  8.0    0.079    0.083    0.081    0.083
 calc_screening_functions             1 10.0    0.021    0.022    0.081    0.083
 cp_fm_power                          1  6.0    0.000    0.000    0.082    0.082
 cp_fm_uplo_to_full                  32  9.8    0.011    0.078    0.011    0.078
 create_qs_kind_set                   1  2.0    0.000    0.000    0.072    0.073
 read_qs_kind                         2  3.0    0.027    0.039    0.072    0.073
 hirshfeld_integration                1  6.0    0.000    0.001    0.073    0.073
 mp_sum_dv                         8567  9.1    0.058    0.071    0.058    0.071
 multiply_cannon_loop              1052 12.3    0.012    0.012    0.064    0.070
 calc_pair_dist_radii                 1 10.0    0.023    0.023    0.067    0.068
 tddfpt_orthogonalize_psi1_psi0       7  6.9    0.000    0.000    0.046    0.065
 calculate_rho_atom                 250 10.0    0.047    0.063    0.047    0.063
 dbcsr_finalize                    4549 11.4    0.010    0.011    0.058    0.063
 pw_grid_remap                        4  8.0    0.019    0.019    0.041    0.058
 offload_free_buffer                132 10.5    0.047    0.058    0.047    0.058
 mp_cart_create                    1049 11.1    0.053    0.056    0.054    0.057
 calculate_first_density_matrix       1  5.0    0.003    0.042    0.055    0.055
 make_images_sizes                 2104 13.3    0.001    0.002    0.048    0.055
 mp_sum_l                          4137 10.3    0.046    0.055    0.046    0.055
 mp_alltoall_i44                   2104 14.3    0.046    0.054    0.046    0.054
 mp_cart_sub                       1594 11.4    0.051    0.053    0.051    0.053
 integrate_four_center_main         244 11.0    0.021    0.041    0.029    0.048
 parser_read_line                 11449  4.0    0.002    0.002    0.045    0.048
 parser_read_line_low                17  5.0    0.001    0.010    0.044    0.046
 broadcast_input_information         17  6.0    0.003    0.003    0.042    0.045
 calculate_hirshfeld_normalizat       1  6.0    0.000    0.001    0.043    0.045
 cp_fm_trace_a1b1t1_aa             7470  8.0    0.013    0.013    0.045    0.045
 dbcsr_create_new                 14633 11.7    0.031    0.033    0.040    0.044
 make_images_data                  2104 13.3    0.010    0.012    0.030    0.043
 mp_allgather_i34                  1052 12.3    0.026    0.042    0.026    0.042
 mp_sum_im3                           4  9.0    0.022    0.039    0.022    0.039
 dbcsr_merge_all                   3709 12.5    0.023    0.025    0.035    0.038
 -------------------------------------------------------------------------------

 The number of warnings for this run is : 0
 
 -------------------------------------------------------------------------------
  **** **** ******  **  PROGRAM ENDED AT                 2025-07-01 14:08:47.694
 ***** ** ***  *** **   PROGRAM RAN ON                                  n2cn0668
 **    ****   ******    PROGRAM RAN BY                                  metdyn02
 ***** **    ** ** **   PROGRAM PROCESS ID                               1328276
  **** **  *******  **  PROGRAM STOPPED IN /scratch/hpc-prf-metdyn/metdyn02_Remi
                                           /10_MOL/05_MOL/W4-11+ALK/co2/mini-SZV
                                           /TDDFT/RILIM
