 DBCSR| CPU Multiplication driver                                           BLAS (U)
 DBCSR| Multrec recursion limit                                              512 (U)
 DBCSR| Multiplication stack size                                           1000 (D)
 DBCSR| Maximum elements for images                                    UNLIMITED (U)
 DBCSR| Multiplicative factor virtual images                                   1 (U)
 DBCSR| Use multiplication densification                                       T (D)
 DBCSR| Multiplication size stacks                                             3 (U)
 DBCSR| Use memory pool for CPU allocation                                     F (U)
 DBCSR| Number of 3D layers                                               SINGLE (U)
 DBCSR| Use MPI memory allocation                                              F (U)
 DBCSR| Use RMA algorithm                                                      F (U)
 DBCSR| Use Communication thread                                               T (U)
 DBCSR| Communication thread load                                             75 (D)
 DBCSR| MPI: My process id                                                     0
 DBCSR| MPI: Number of processes                                              48
 DBCSR| OMP: Current number of threads                                         4
 DBCSR| OMP: Max number of threads                                             4
 DBCSR| Split modifier for TAS multiplication algorithm                  1.0E+00 (U)


  **** **** ******  **  PROGRAM STARTED AT               2025-03-26 06:56:39.317
 ***** ** ***  *** **   PROGRAM STARTED ON                          i05r06c06s12
 **    ****   ******    PROGRAM STARTED BY                               di38fab
 ***** **    ** ** **   PROGRAM PROCESS ID                                723876
  **** **  *******  **  PROGRAM STARTED IN /hppfs/scratch/04/di38fab/05_MOL/W4-1
                                           1+ALK/hcno/SZVSR/GW+BSE/1e-4

 CP2K| version string:                 CP2K version 2025.1 (Development Version)
 CP2K| source code revision number:                                  git:d2e611a
 CP2K| cp2kflags: omp libint fftw3 libxc parallel scalapack max_contr=4         
 CP2K| is freely available from                            https://www.cp2k.org/
 CP2K| Program compiled at                       Thu 06 Mar 2025 05:09:20 PM CET
 CP2K| Program compiled on                                               login02
 CP2K| Program compiled for                                        Supermuc-foss
 CP2K| Data directory path                  /hppfs/work/pn36zo/di38fab/cp2k/data
 CP2K| Input file name                                                    GW.inp

 GLOBAL| Force Environment number                                              1
 GLOBAL| Basis set file name            /hppfs/scratch/04/di38fab/04_TMD/BASIS_A
 GLOBAL| Potential file name            /hppfs/work/pn36zo/di38fab/cp2k/data/ALL
 GLOBAL| MM Potential file name                                     MM_POTENTIAL
 GLOBAL| Coordinate file name                                      __STD_INPUT__
 GLOBAL| Method name                                                        CP2K
 GLOBAL| Project name                                                       MoS2
 GLOBAL| Run type                                                         ENERGY
 GLOBAL| FFT library                                                       FFTW3
 GLOBAL| Diagonalization library                                       ScaLAPACK
 GLOBAL| DGEMM library                                                      BLAS
 GLOBAL| Orthonormality check for eigenvectors                          DISABLED
 GLOBAL| Matrix multiplication library                                 ScaLAPACK
 GLOBAL| All-to-all communication in single precision                          F
 GLOBAL| FFTs using library dependent lengths                                  F
 GLOBAL| Grid backend                                                       AUTO
 GLOBAL| Global print level                                               MEDIUM
 GLOBAL| MPI I/O enabled                                                       T
 GLOBAL| Total number of message passing processes                            48
 GLOBAL| Number of threads for this process                                    4
 GLOBAL| This output is from process                                           0
 GLOBAL| OpenMP stack size per thread (OMP_STACKSIZE)                    default
 GLOBAL| CPU model name             Intel(R) Xeon(R) Platinum 8174 CPU @ 3.10GHz

 MEMORY| system memory details [Kb]
 MEMORY|                        rank 0           min           max       average
 MEMORY| MemTotal             98436660      98436660      98436708      98436674
 MEMORY| MemFree              83883848      83883848      84127348      83980390
 MEMORY| Buffers                     0             0             0             0
 MEMORY| Cached                2391984       2391984       2398556       2395030
 MEMORY| Slab                  1238840       1230792       1238840       1234959
 MEMORY| SReclaimable           279092        268292        279092        272238
 MEMORY| MemLikelyFree        86554924      86554924      86787920      86647658


 *** Fundamental physical constants (SI units) ***

 *** Literature: B. J. Mohr and B. N. Taylor,
 ***             CODATA recommended values of the fundamental physical
 ***             constants: 2006, Web Version 5.1
 ***             http://physics.nist.gov/constants

 Speed of light in vacuum [m/s]                             2.99792458000000E+08
 Magnetic constant or permeability of vacuum [N/A**2]       1.25663706143592E-06
 Electric constant or permittivity of vacuum [F/m]          8.85418781762039E-12
 Planck constant (h) [J*s]                                  6.62606896000000E-34
 Planck constant (h-bar) [J*s]                              1.05457162825177E-34
 Elementary charge [C]                                      1.60217648700000E-19
 Electron mass [kg]                                         9.10938215000000E-31
 Electron g factor [ ]                                     -2.00231930436220E+00
 Proton mass [kg]                                           1.67262163700000E-27
 Fine-structure constant                                    7.29735253760000E-03
 Rydberg constant [1/m]                                     1.09737315685270E+07
 Avogadro constant [1/mol]                                  6.02214179000000E+23
 Boltzmann constant [J/K]                                   1.38065040000000E-23
 Atomic mass unit [kg]                                      1.66053878200000E-27
 Bohr radius [m]                                            5.29177208590000E-11

 *** Conversion factors ***

 [u] -> [a.u.]                                              1.82288848426455E+03
 [Angstrom] -> [Bohr] = [a.u.]                              1.88972613288564E+00
 [a.u.] = [Bohr] -> [Angstrom]                              5.29177208590000E-01
 [a.u.] -> [s]                                              2.41888432650478E-17
 [a.u.] -> [fs]                                             2.41888432650478E-02
 [a.u.] -> [J]                                              4.35974393937059E-18
 [a.u.] -> [N]                                              8.23872205491840E-08
 [a.u.] -> [K]                                              3.15774647902944E+05
 [a.u.] -> [kJ/mol]                                         2.62549961709828E+03
 [a.u.] -> [kcal/mol]                                       6.27509468713739E+02
 [a.u.] -> [Pa]                                             2.94210107994716E+13
 [a.u.] -> [bar]                                            2.94210107994716E+08
 [a.u.] -> [atm]                                            2.90362800883016E+08
 [a.u.] -> [eV]                                             2.72113838565563E+01
 [a.u.] -> [Hz]                                             6.57968392072181E+15
 [a.u.] -> [1/cm] (wave numbers)                            2.19474631370540E+05
 [a.u./Bohr**2] -> [1/cm]                                   5.14048714338585E+03
 

 CELL_TOP| Volume [angstrom^3]:                                     27000.000000
 CELL_TOP| Vector a [angstrom    30.000     0.000     0.000   |a| =    30.000000
 CELL_TOP| Vector b [angstrom     0.000    30.000     0.000   |b| =    30.000000
 CELL_TOP| Vector c [angstrom     0.000     0.000    30.000   |c| =    30.000000
 CELL_TOP| Angle (b,c), alpha [degree]:                                90.000000
 CELL_TOP| Angle (a,c), beta  [degree]:                                90.000000
 CELL_TOP| Angle (a,b), gamma [degree]:                                90.000000
 CELL_TOP| Numerically orthorhombic:                                         YES
 CELL_TOP| Periodicity                                                      NONE

 GENERATE|  Preliminary Number of Bonds generated:                             0
 GENERATE|  Achieved consistency in connectivity generation.

 CELL| Volume [angstrom^3]:                                         27000.000000
 CELL| Vector a [angstrom]:      30.000     0.000     0.000   |a| =    30.000000
 CELL| Vector b [angstrom]:       0.000    30.000     0.000   |b| =    30.000000
 CELL| Vector c [angstrom]:       0.000     0.000    30.000   |c| =    30.000000
 CELL| Angle (b,c), alpha [degree]:                                    90.000000
 CELL| Angle (a,c), beta  [degree]:                                    90.000000
 CELL| Angle (a,b), gamma [degree]:                                    90.000000
 CELL| Numerically orthorhombic:                                             YES
 CELL| Periodicity                                                          NONE

 CELL_REF| Volume [angstrom^3]:                                     27000.000000
 CELL_REF| Vector a [angstrom    30.000     0.000     0.000   |a| =    30.000000
 CELL_REF| Vector b [angstrom     0.000    30.000     0.000   |b| =    30.000000
 CELL_REF| Vector c [angstrom     0.000     0.000    30.000   |c| =    30.000000
 CELL_REF| Angle (b,c), alpha [degree]:                                90.000000
 CELL_REF| Angle (a,c), beta  [degree]:                                90.000000
 CELL_REF| Angle (a,b), gamma [degree]:                                90.000000
 CELL_REF| Numerically orthorhombic:                                         YES
 CELL_REF| Periodicity                                                      NONE

 *******************************************************************************
 *******************************************************************************
 **                                                                           **
 **     #####                         ##              ##                      **
 **    ##   ##            ##          ##              ##                      **
 **   ##     ##                       ##            ######                    **
 **   ##     ##  ##   ##  ##   #####  ##  ##   ####   ##    #####    #####    **
 **   ##     ##  ##   ##  ##  ##      ## ##   ##      ##   ##   ##  ##   ##   **
 **   ##  ## ##  ##   ##  ##  ##      ####     ###    ##   ######   ######    **
 **    ##  ###   ##   ##  ##  ##      ## ##      ##   ##   ##       ##        **
 **     #######   #####   ##   #####  ##  ##  ####    ##    #####   ##        **
 **           ##                                                    ##        **
 **                                                                           **
 **                                                ... make the atoms dance   **
 **                                                                           **
 **            Copyright (C) by CP2K developers group (2000-2025)             **
 **                      J. Chem. Phys. 152, 194103 (2020)                    **
 **                                                                           **
 *******************************************************************************

 DFT| Spin restricted Kohn-Sham (RKS) calculation                            RKS
 DFT| Multiplicity                                                             1
 DFT| Number of spin states                                                    1
 DFT| Charge                                                                   0
 DFT| Self-interaction correction (SIC)                                       NO
 DFT| Cutoffs: density                                              1.000000E-10
 DFT|          gradient                                             1.000000E-10
 DFT|          tau                                                  1.000000E-10
 DFT|          cutoff_smoothing_range                               0.000000E+00
 DFT| XC density smoothing                                                  NONE
 DFT| XC derivatives                                                          PW

 FUNCTIONAL| PBE:
 FUNCTIONAL| J.P.Perdew, K.Burke, M.Ernzerhof, Phys. Rev. Letter, vol. 77, n 18,
 FUNCTIONAL|  pp. 3865-3868, (1996)sx=0.750sc=1.000{spin unpolarized}           


 QS| Method:                                                                GAPW
 QS| Density plane wave grid type                        NON-SPHERICAL FULLSPACE
 QS| Number of grid levels:                                                    4
 QS| Density cutoff [a.u.]:                                                250.0
 QS| Multi grid cutoff [a.u.]: 1) grid level                               250.0
 QS|                           2) grid level                                83.3
 QS|                           3) grid level                                27.8
 QS|                           4) grid level                                 9.3
 QS| Grid level progression factor:                                          3.0
 QS| Relative density cutoff [a.u.]:                                        50.0
 QS| Interaction thresholds: eps_pgf_orb:                                1.0E-12
 QS|                         eps_filter_matrix:                          0.0E+00
 QS|                         eps_core_charge:                            1.0E-14
 QS|                         eps_rho_gspace:                             1.0E-12
 QS|                         eps_rho_rspace:                             1.0E-12
 QS|                         eps_gvg_rspace:                             1.0E-06
 QS|                         eps_ppl:                                    1.0E-02
 QS|                         eps_ppnl:                                   1.0E-08
 QS| GAPW|      One center basis from orbital basis primitives
 QS| GAPW|                   eps_fit:                                    1.0E-04
 QS| GAPW|                   eps_iso:                                    1.0E-12
 QS| GAPW|                   eps_svd:                                    1.0E-08
 QS| GAPW|                   eps_cpc:                                    1.0E-12
 QS| GAPW|   atom-r-grid: quadrature:                                     GC_LOG
 QS| GAPW|      atom-s-grid:  max l :                                          4
 QS| GAPW|      max_l_rho0 :                                                   2
 QS| GAPW|      At least one kind is NOT PAW, i.e. it has only soft AO 
 QS| GAPW|      The NOT PAW atoms are treated fully GPW


 ATOMIC KIND INFORMATION

  1. Atomic kind: C                                     Number of atoms:       1

     Orbital Basis Set                                      aug-SZV-MOLOPT-ae-SR

       Number of orbital shell sets:                                           2
       Number of orbital shells:                                               6
       Number of primitive Cartesian functions:                                7
       Number of Cartesian basis functions:                                   15
       Number of spherical basis functions:                                   14
       Norm type:                                                              2

       Normalised Cartesian orbitals:

                        Set   Shell   Orbital            Exponent    Coefficient

                          1       1    2s                0.114559       0.000000
                                                         0.222290       0.161536
                                                         0.683483       0.214036
                                                         2.941249      -0.160017

                          1       2    3s                0.114559       0.078076
                                                         0.222290       0.130402
                                                         0.683483      -0.084834
                                                         2.941249       0.041379

                          1       3    3px               0.114559       0.000000
                                                         0.222290       0.085276
                                                         0.683483       0.538304
                                                         2.941249       0.856045
                          1       3    3py               0.114559       0.000000
                                                         0.222290       0.085276
                                                         0.683483       0.538304
                                                         2.941249       0.856045
                          1       3    3pz               0.114559       0.000000
                                                         0.222290       0.085276
                                                         0.683483       0.538304
                                                         2.941249       0.856045

                          1       4    4px               0.114559       0.224492
                                                         0.222290      -0.546182
                                                         0.683483       0.918493
                                                         2.941249      -0.348342
                          1       4    4py               0.114559       0.224492
                                                         0.222290      -0.546182
                                                         0.683483       0.918493
                                                         2.941249      -0.348342
                          1       4    4pz               0.114559       0.224492
                                                         0.222290      -0.546182
                                                         0.683483       0.918493
                                                         2.941249      -0.348342

                          1       5    4dx2              0.114559       0.004023
                                                         0.222290       0.096934
                                                         0.683483       0.116751
                                                         2.941249       0.357653
                          1       5    4dxy              0.114559       0.006968
                                                         0.222290       0.167895
                                                         0.683483       0.202218
                                                         2.941249       0.619473
                          1       5    4dxz              0.114559       0.006968
                                                         0.222290       0.167895
                                                         0.683483       0.202218
                                                         2.941249       0.619473
                          1       5    4dy2              0.114559       0.004023
                                                         0.222290       0.096934
                                                         0.683483       0.116751
                                                         2.941249       0.357653
                          1       5    4dyz              0.114559       0.006968
                                                         0.222290       0.167895
                                                         0.683483       0.202218
                                                         2.941249       0.619473
                          1       5    4dz2              0.114559       0.004023
                                                         0.222290       0.096934
                                                         0.683483       0.116751
                                                         2.941249       0.357653

                          2       1    1s               71.616837       2.707814
                                                        13.045096       2.618880
                                                         3.530512       0.816191

     RI Auxiliary Basis Set             RI_aug-SZV-MOLOPT-ae-SR_N_RI_045_s_p_d_f

       Number of orbital shell sets:                                          15
       Number of orbital shells:                                              15
       Number of primitive Cartesian functions:                               15
       Number of Cartesian basis functions:                                   53
       Number of spherical basis functions:                                   45
       Norm type:                                                              2

       Normalised Cartesian orbitals:

                        Set   Shell   Orbital            Exponent    Coefficient

                          1       1    1s                0.335626       0.314269

                          2       1    7px               0.430431       0.496958
                          2       1    7py               0.430431       0.496958
                          2       1    7pz               0.430431       0.496958

                          3       1   12dx2              0.522083       0.527781
                          3       1   12dxy              0.522083       0.914144
                          3       1   12dxz              0.522083       0.914144
                          3       1   12dy2              0.522083       0.527781
                          3       1   12dyz              0.522083       0.914144
                          3       1   12dz2              0.522083       0.527781

                          4       1    8px               0.557902       0.687287
                          4       1    8py               0.557902       0.687287
                          4       1    8pz               0.557902       0.687287

                          5       1   14fx3              0.588350       0.446308
                          5       1   14fx2y             0.588350       0.997974
                          5       1   14fx2z             0.588350       0.997974
                          5       1   14fxy2             0.588350       0.997974
                          5       1   14fxyz             0.588350       1.728542
                          5       1   14fxz2             0.588350       0.997974
                          5       1   14fy3              0.588350       0.446308
                          5       1   14fy2z             0.588350       0.997974
                          5       1   14fyz2             0.588350       0.997974
                          5       1   14fz3              0.588350       0.446308

                          6       1    2s                1.012193       0.719213

                          7       1    9px               1.595955       2.556913
                          7       1    9py               1.595955       2.556913
                          7       1    9pz               1.595955       2.556913

                          8       1   15fx3              2.519735      11.776133
                          8       1   15fx2y             2.519735      26.332235
                          8       1   15fx2z             2.519735      26.332235
                          8       1   15fxy2             2.519735      26.332235
                          8       1   15fxyz             2.519735      45.608768
                          8       1   15fxz2             2.519735      26.332235
                          8       1   15fy3              2.519735      11.776133
                          8       1   15fy2z             2.519735      26.332235
                          8       1   15fyz2             2.519735      26.332235
                          8       1   15fz3              2.519735      11.776133

                          9       1   13dx2              2.522804       8.312002
                          9       1   13dxy              2.522804      14.396810
                          9       1   13dxz              2.522804      14.396810
                          9       1   13dy2              2.522804       8.312002
                          9       1   13dyz              2.522804      14.396810
                          9       1   13dz2              2.522804       8.312002

                         10       1    3s                3.115568       1.671333

                         11       1   10px               5.069113      10.841891
                         11       1   10py               5.069113      10.841891
                         11       1   10pz               5.069113      10.841891

                         12       1    4s                9.232047       3.774710

                         13       1   11px              15.199704      42.779333
                         13       1   11py              15.199704      42.779333
                         13       1   11pz              15.199704      42.779333

                         14       1    5s               27.130488       8.472338

                         15       1    6s               79.597157      18.992549

       Atomic covalent radius [Angstrom]:                                  0.770

       Atomic van der Waals radius [Angstrom]:                             1.700

     The atoms of this atomic kind are PAW atoms (GAPW):
       Hard Gaussian function radius:                                      1.512
       Rho0 radius:                                                        1.512
       Maximum GTO radius used for PAW projector construction:            24.566

     GAPW Soft Basis Set                               aug-SZV-MOLOPT-ae-SR_soft

       Number of orbital shell sets:                                           2
       Number of orbital shells:                                               6
       Number of primitive Cartesian functions:                                5
       Number of Cartesian basis functions:                                   15
       Number of spherical basis functions:                                   14
       Norm type:                                                              2

       Normalised Cartesian orbitals:

                        Set   Shell   Orbital            Exponent    Coefficient

                          1       1    2s                0.114559       0.000000
                                                         0.222290       0.161536
                                                         0.683483       0.214036
                                                         2.941249      -0.160017

                          1       2    3s                0.114559       0.078076
                                                         0.222290       0.130402
                                                         0.683483      -0.084834
                                                         2.941249       0.041379

                          1       3    3px               0.114559       0.000000
                                                         0.222290       0.085276
                                                         0.683483       0.538304
                                                         2.941249       0.856045
                          1       3    3py               0.114559       0.000000
                                                         0.222290       0.085276
                                                         0.683483       0.538304
                                                         2.941249       0.856045
                          1       3    3pz               0.114559       0.000000
                                                         0.222290       0.085276
                                                         0.683483       0.538304
                                                         2.941249       0.856045

                          1       4    4px               0.114559       0.224492
                                                         0.222290      -0.546182
                                                         0.683483       0.918493
                                                         2.941249      -0.348342
                          1       4    4py               0.114559       0.224492
                                                         0.222290      -0.546182
                                                         0.683483       0.918493
                                                         2.941249      -0.348342
                          1       4    4pz               0.114559       0.224492
                                                         0.222290      -0.546182
                                                         0.683483       0.918493
                                                         2.941249      -0.348342

                          1       5    4dx2              0.114559       0.004023
                                                         0.222290       0.096934
                                                         0.683483       0.116751
                                                         2.941249       0.357653
                          1       5    4dxy              0.114559       0.006968
                                                         0.222290       0.167895
                                                         0.683483       0.202218
                                                         2.941249       0.619473
                          1       5    4dxz              0.114559       0.006968
                                                         0.222290       0.167895
                                                         0.683483       0.202218
                                                         2.941249       0.619473
                          1       5    4dy2              0.114559       0.004023
                                                         0.222290       0.096934
                                                         0.683483       0.116751
                                                         2.941249       0.357653
                          1       5    4dyz              0.114559       0.006968
                                                         0.222290       0.167895
                                                         0.683483       0.202218
                                                         2.941249       0.619473
                          1       5    4dz2              0.114559       0.004023
                                                         0.222290       0.096934
                                                         0.683483       0.116751
                                                         2.941249       0.357653

                          2       1    1s                3.530512       0.816191

     AE Potential information for                                            ALL

       Description:                                       All-electron potential
                                          Krack, Parrinello, PCCP 2, 2105 (2000)

       Gaussian exponent of the core charge distribution:               4.109048
       Electronic configuration (s p d ...):                           4   2   0

  2. Atomic kind: H                                     Number of atoms:       1

     Orbital Basis Set                                      aug-SZV-MOLOPT-ae-SR

       Number of orbital shell sets:                                           1
       Number of orbital shells:                                               4
       Number of primitive Cartesian functions:                                4
       Number of Cartesian basis functions:                                    6
       Number of spherical basis functions:                                    6
       Norm type:                                                              2

       Normalised Cartesian orbitals:

                        Set   Shell   Orbital            Exponent    Coefficient

                          1       1    2s                0.065428       0.000000
                                                         0.168855       0.083474
                                                         0.623914       0.267839
                                                         3.425251       0.276934

                          1       2    3s                0.065428      -0.066952
                                                         0.168855       0.261968
                                                         0.623914       0.081548
                                                         3.425251      -0.022414

                          1       3    4s                0.065428       0.165615
                                                         0.168855      -0.226449
                                                         0.623914      -0.005802
                                                         3.425251       0.005451

                          1       4    3px               0.065428       0.053063
                                                         0.168855      -0.030502
                                                         0.623914       0.062721
                                                         3.425251       0.019012
                          1       4    3py               0.065428       0.053063
                                                         0.168855      -0.030502
                                                         0.623914       0.062721
                                                         3.425251       0.019012
                          1       4    3pz               0.065428       0.053063
                                                         0.168855      -0.030502
                                                         0.623914       0.062721
                                                         3.425251       0.019012

     RI Auxiliary Basis Set             RI_aug-SZV-MOLOPT-ae-SR_N_RI_011_s_p_d_f

       Number of orbital shell sets:                                           7
       Number of orbital shells:                                               7
       Number of primitive Cartesian functions:                                7
       Number of Cartesian basis functions:                                   11
       Number of spherical basis functions:                                   11
       Norm type:                                                              2

       Normalised Cartesian orbitals:

                        Set   Shell   Orbital            Exponent    Coefficient

                          1       1    1s                0.220060       0.228990

                          2       1    6px               0.249217       0.250993
                          2       1    6py               0.249217       0.250993
                          2       1    6pz               0.249217       0.250993

                          3       1    2s                0.439991       0.385028

                          4       1    3s                1.250226       0.842658

                          5       1    7px               1.527347       2.420262
                          5       1    7py               1.527347       2.420262
                          5       1    7pz               1.527347       2.420262

                          6       1    4s                3.629850       1.874246

                          7       1    5s                7.032687       3.077875

       Atomic covalent radius [Angstrom]:                                  0.320

       Atomic van der Waals radius [Angstrom]:                             1.090

     AE Potential information for                                            ALL

       Description:                                       All-electron potential
                                          Krack, Parrinello, PCCP 2, 2105 (2000)

       Gaussian exponent of the core charge distribution:              12.500000
       Electronic configuration (s p d ...):                           1   0   0

  3. Atomic kind: N                                     Number of atoms:       1

     Orbital Basis Set                                      aug-SZV-MOLOPT-ae-SR

       Number of orbital shell sets:                                           2
       Number of orbital shells:                                               6
       Number of primitive Cartesian functions:                                7
       Number of Cartesian basis functions:                                   15
       Number of spherical basis functions:                                   14
       Norm type:                                                              2

       Normalised Cartesian orbitals:

                        Set   Shell   Orbital            Exponent    Coefficient

                          1       1    1s                0.112012       0.000000
                                                         0.285714       0.194997
                                                         0.878497       0.258372
                                                         3.780456      -0.193164

                          1       2    2s                0.112012       0.083551
                                                         0.285714      -0.189186
                                                         0.878497      -0.469875
                                                         3.780456      -0.002085

                          1       3    2px               0.112012       0.000000
                                                         0.285714       0.116706
                                                         0.878497       0.736704
                                                         3.780456       1.171553
                          1       3    2py               0.112012       0.000000
                                                         0.285714       0.116706
                                                         0.878497       0.736704
                                                         3.780456       1.171553
                          1       3    2pz               0.112012       0.000000
                                                         0.285714       0.116706
                                                         0.878497       0.736704
                                                         3.780456       1.171553

                          1       4    3px               0.112012       0.141957
                                                         0.285714      -0.286713
                                                         0.878497       0.074784
                                                         3.780456       0.008085
                          1       4    3py               0.112012       0.141957
                                                         0.285714      -0.286713
                                                         0.878497       0.074784
                                                         3.780456       0.008085
                          1       4    3pz               0.112012       0.141957
                                                         0.285714      -0.286713
                                                         0.878497       0.074784
                                                         3.780456       0.008085

                          1       5    3dx2              0.112012      -0.000364
                                                         0.285714       0.186009
                                                         0.878497      -0.044751
                                                         3.780456       1.815169
                          1       5    3dxy              0.112012      -0.000630
                                                         0.285714       0.322177
                                                         0.878497      -0.077512
                                                         3.780456       3.143965
                          1       5    3dxz              0.112012      -0.000630
                                                         0.285714       0.322177
                                                         0.878497      -0.077512
                                                         3.780456       3.143965
                          1       5    3dy2              0.112012      -0.000364
                                                         0.285714       0.186009
                                                         0.878497      -0.044751
                                                         3.780456       1.815169
                          1       5    3dyz              0.112012      -0.000630
                                                         0.285714       0.322177
                                                         0.878497      -0.077512
                                                         3.780456       3.143965
                          1       5    3dz2              0.112012      -0.000364
                                                         0.285714       0.186009
                                                         0.878497      -0.044751
                                                         3.780456       1.815169

                          2       1    1s               99.106169       3.454881
                                                        18.052312       3.341410
                                                         4.885660       1.041372

     RI Auxiliary Basis Set             RI_aug-SZV-MOLOPT-ae-SR_N_RI_036_s_p_d_f

       Number of orbital shell sets:                                          12
       Number of orbital shells:                                              12
       Number of primitive Cartesian functions:                               12
       Number of Cartesian basis functions:                                   42
       Number of spherical basis functions:                                   36
       Norm type:                                                              2

       Normalised Cartesian orbitals:

                        Set   Shell   Orbital            Exponent    Coefficient

                          1       1    1s                0.362114       0.332693

                          2       1    6px               0.499696       0.598857
                          2       1    6py               0.499696       0.598857
                          2       1    6pz               0.499696       0.598857

                          3       1    9dx2              0.588659       0.651135
                          3       1    9dxy              0.588659       1.127800
                          3       1    9dxz              0.588659       1.127800
                          3       1    9dy2              0.588659       0.651135
                          3       1    9dyz              0.588659       1.127800
                          3       1    9dz2              0.588659       0.651135

                          4       1    2s                0.631634       0.504963

                          5       1   12fx3              0.736605       0.740002
                          5       1   12fx2y             0.736605       1.654695
                          5       1   12fx2z             0.736605       1.654695
                          5       1   12fxy2             0.736605       1.654695
                          5       1   12fxyz             0.736605       2.866016
                          5       1   12fxz2             0.736605       1.654695
                          5       1   12fy3              0.736605       0.740002
                          5       1   12fy2z             0.736605       1.654695
                          5       1   12fyz2             0.736605       1.654695
                          5       1   12fz3              0.736605       0.740002

                          6       1    7px               0.883396       1.220771
                          6       1    7py               0.883396       1.220771
                          6       1    7pz               0.883396       1.220771

                          7       1   10dx2              1.153946       2.114628
                          7       1   10dxy              1.153946       3.662643
                          7       1   10dxz              1.153946       3.662643
                          7       1   10dy2              1.153946       2.114628
                          7       1   10dyz              1.153946       3.662643
                          7       1   10dz2              1.153946       2.114628

                          8       1    3s                2.978947       1.616059

                          9       1    8px               4.407746       9.103549
                          9       1    8py               4.407746       9.103549
                          9       1    8pz               4.407746       9.103549

                         10       1   11dx2              5.691883      34.522914
                         10       1   11dxy              5.691883      59.795442
                         10       1   11dxz              5.691883      59.795442
                         10       1   11dy2              5.691883      34.522914
                         10       1   11dyz              5.691883      59.795442
                         10       1   11dz2              5.691883      34.522914

                         11       1    4s               18.342052       6.316784

                         12       1    5s              106.308958      23.595951

       Atomic covalent radius [Angstrom]:                                  0.750

       Atomic van der Waals radius [Angstrom]:                             1.550

     The atoms of this atomic kind are PAW atoms (GAPW):
       Hard Gaussian function radius:                                      1.512
       Rho0 radius:                                                        1.512
       Maximum GTO radius used for PAW projector construction:            24.566

     GAPW Soft Basis Set                               aug-SZV-MOLOPT-ae-SR_soft

       Number of orbital shell sets:                                           2
       Number of orbital shells:                                               6
       Number of primitive Cartesian functions:                                4
       Number of Cartesian basis functions:                                   15
       Number of spherical basis functions:                                   14
       Norm type:                                                              2

       Normalised Cartesian orbitals:

                        Set   Shell   Orbital            Exponent    Coefficient

                          1       1    1s                0.112012       0.000000
                                                         0.285714       0.194997
                                                         0.878497       0.258372
                                                         3.780456      -0.193164

                          1       2    2s                0.112012       0.083551
                                                         0.285714      -0.189186
                                                         0.878497      -0.469875
                                                         3.780456      -0.002085

                          1       3    2px               0.112012       0.000000
                                                         0.285714       0.116706
                                                         0.878497       0.736704
                                                         3.780456       1.171553
                          1       3    2py               0.112012       0.000000
                                                         0.285714       0.116706
                                                         0.878497       0.736704
                                                         3.780456       1.171553
                          1       3    2pz               0.112012       0.000000
                                                         0.285714       0.116706
                                                         0.878497       0.736704
                                                         3.780456       1.171553

                          1       4    3px               0.112012       0.141957
                                                         0.285714      -0.286713
                                                         0.878497       0.074784
                                                         3.780456       0.008085
                          1       4    3py               0.112012       0.141957
                                                         0.285714      -0.286713
                                                         0.878497       0.074784
                                                         3.780456       0.008085
                          1       4    3pz               0.112012       0.141957
                                                         0.285714      -0.286713
                                                         0.878497       0.074784
                                                         3.780456       0.008085

                          1       5    3dx2              0.112012      -0.000364
                                                         0.285714       0.186009
                                                         0.878497      -0.044751
                                                         3.780456       1.815169
                          1       5    3dxy              0.112012      -0.000630
                                                         0.285714       0.322177
                                                         0.878497      -0.077512
                                                         3.780456       3.143965
                          1       5    3dxz              0.112012      -0.000630
                                                         0.285714       0.322177
                                                         0.878497      -0.077512
                                                         3.780456       3.143965
                          1       5    3dy2              0.112012      -0.000364
                                                         0.285714       0.186009
                                                         0.878497      -0.044751
                                                         3.780456       1.815169
                          1       5    3dyz              0.112012      -0.000630
                                                         0.285714       0.322177
                                                         0.878497      -0.077512
                                                         3.780456       3.143965
                          1       5    3dz2              0.112012      -0.000364
                                                         0.285714       0.186009
                                                         0.878497      -0.044751
                                                         3.780456       1.815169

                          2       1    1s         

     AE Potential information for                                            ALL

       Description:                                       All-electron potential
                                          Krack, Parrinello, PCCP 2, 2105 (2000)

       Gaussian exponent of the core charge distribution:               5.979100
       Electronic configuration (s p d ...):                           4   3   0

  4. Atomic kind: O                                     Number of atoms:       1

     Orbital Basis Set                                      aug-SZV-MOLOPT-ae-SR

       Number of orbital shell sets:                                           2
       Number of orbital shells:                                               6
       Number of primitive Cartesian functions:                                7
       Number of Cartesian basis functions:                                   15
       Number of spherical basis functions:                                   14
       Norm type:                                                              2

       Normalised Cartesian orbitals:

                        Set   Shell   Orbital            Exponent    Coefficient

                          1       1    1s                0.162492       0.000000
                                                         0.380389       0.241686
                                                         1.169596       0.320234
                                                         5.033151      -0.239413

                          1       2    2s                0.162492       0.120425
                                                         0.380389       0.131001
                                                         1.169596      -0.000041
                                                         5.033151      -0.089217

                          1       3    2px               0.162492       0.000000
                                                         0.380389       0.166903
                                                         1.169596       1.053568
                                                         5.033151       1.675450
                          1       3    2py               0.162492       0.000000
                                                         0.380389       0.166903
                                                         1.169596       1.053568
                                                         5.033151       1.675450
                          1       3    2pz               0.162492       0.000000
                                                         0.380389       0.166903
                                                         1.169596       1.053568
                                                         5.033151       1.675450

                          1       4    3px               0.162492       0.001278
                                                         0.380389       0.422682
                                                         1.169596       0.000775
                                                         5.033151       0.003884
                          1       4    3py               0.162492       0.001278
                                                         0.380389       0.422682
                                                         1.169596       0.000775
                                                         5.033151       0.003884
                          1       4    3pz               0.162492       0.001278
                                                         0.380389       0.422682
                                                         1.169596       0.000775
                                                         5.033151       0.003884

                          1       5    3dx2              0.162492      -0.037898
                                                         0.380389       0.380180
                                                         1.169596       0.208664
                                                         5.033151       1.207157
                          1       5    3dxy              0.162492      -0.065641
                                                         0.380389       0.658491
                                                         1.169596       0.361417
                                                         5.033151       2.090858
                          1       5    3dxz              0.162492      -0.065641
                                                         0.380389       0.658491
                                                         1.169596       0.361417
                                                         5.033151       2.090858
                          1       5    3dy2              0.162492      -0.037898
                                                         0.380389       0.380180
                                                         1.169596       0.208664
                                                         5.033151       1.207157
                          1       5    3dyz              0.162492      -0.065641
                                                         0.380389       0.658491
                                                         1.169596       0.361417
                                                         5.033151       2.090858
                          1       5    3dz2              0.162492      -0.037898
                                                         0.380389       0.380180
                                                         1.169596       0.208664
                                                         5.033151       1.207157

                          2       1    1s              130.709321       4.251943
                                                        23.808866       4.112294
                                                         6.443608       1.281623

     RI Auxiliary Basis Set             RI_aug-SZV-MOLOPT-ae-SR_N_RI_034_s_p_d_f

       Number of orbital shell sets:                                          12
       Number of orbital shells:                                              12
       Number of primitive Cartesian functions:                               12
       Number of Cartesian basis functions:                                   39
       Number of spherical basis functions:                                   34
       Norm type:                                                              2

       Normalised Cartesian orbitals:

                        Set   Shell   Orbital            Exponent    Coefficient

                          1       1    1s                0.437626       0.383475

                          2       1   10dx2              0.833911       1.197758
                          2       1   10dxy              0.833911       2.074578
                          2       1   10dxz              0.833911       2.074578
                          2       1   10dy2              0.833911       1.197758
                          2       1   10dyz              0.833911       2.074578
                          2       1   10dz2              0.833911       1.197758

                          3       1    6px               0.900493       1.250376
                          3       1    6py               0.900493       1.250376
                          3       1    6pz               0.900493       1.250376

                          4       1   12fx3              1.229346       2.342726
                          4       1   12fx2y             1.229346       5.238494
                          4       1   12fx2z             1.229346       5.238494
                          4       1   12fxy2             1.229346       5.238494
                          4       1   12fxyz             1.229346       9.073337
                          4       1   12fxz2             1.229346       5.238494
                          4       1   12fy3              1.229346       2.342726
                          4       1   12fy2z             1.229346       5.238494
                          4       1   12fyz2             1.229346       5.238494
                          4       1   12fz3              1.229346       2.342726

                          5       1    7px               1.580726       2.526451
                          5       1    7py               1.580726       2.526451
                          5       1    7pz               1.580726       2.526451

                          6       1    2s                1.930028       1.167032

                          7       1   11dx2              3.355577      13.693108
                          7       1   11dxy              3.355577      23.717160
                          7       1   11dxz              3.355577      23.717160
                          7       1   11dy2              3.355577      13.693108
                          7       1   11dyz              3.355577      23.717160
                          7       1   11dz2              3.355577      13.693108

                          8       1    3s                7.045462       3.082068

                          9       1    8px               7.187234      16.774219
                          9       1    8py               7.187234      16.774219
                          9       1    8pz               7.187234      16.774219

                         10       1    9px              31.206613     105.135257
                         10       1    9py              31.206613     105.135257
                         10       1    9pz              31.206613     105.135257

                         11       1    4s               33.536295       9.932222

                         12       1    5s              158.844986      31.888950

       Atomic covalent radius [Angstrom]:                                  0.730

       Atomic van der Waals radius [Angstrom]:                             1.520

     The atoms of this atomic kind are PAW atoms (GAPW):
       Hard Gaussian function radius:                                      1.512
       Rho0 radius:                                                        1.512
       Maximum GTO radius used for PAW projector construction:            24.566

     GAPW Soft Basis Set                               aug-SZV-MOLOPT-ae-SR_soft

       Number of orbital shell sets:                                           2
       Number of orbital shells:                                               6
       Number of primitive Cartesian functions:                                3
       Number of Cartesian basis functions:                                   15
       Number of spherical basis functions:                                   14
       Norm type:                                                              2

       Normalised Cartesian orbitals:

                        Set   Shell   Orbital            Exponent    Coefficient

                          1       1    1s                0.162492       0.000000
                                                         0.380389       0.241686
                                                         1.169596       0.320234

                          1       2    2s                0.162492       0.120425
                                                         0.380389       0.131001
                                                         1.169596      -0.000041

                          1       3    2px               0.162492       0.000000
                                                         0.380389       0.166903
                                                         1.169596       1.053568
                          1       3    2py               0.162492       0.000000
                                                         0.380389       0.166903
                                                         1.169596       1.053568
                          1       3    2pz               0.162492       0.000000
                                                         0.380389       0.166903
                                                         1.169596       1.053568

                          1       4    3px               0.162492       0.001278
                                                         0.380389       0.422682
                                                         1.169596       0.000775
                          1       4    3py               0.162492       0.001278
                                                         0.380389       0.422682
                                                         1.169596       0.000775
                          1       4    3pz               0.162492       0.001278
                                                         0.380389       0.422682
                                                         1.169596       0.000775

                          1       5    3dx2              0.162492      -0.037898
                                                         0.380389       0.380180
                                                         1.169596       0.208664
                          1       5    3dxy              0.162492      -0.065641
                                                         0.380389       0.658491
                                                         1.169596       0.361417
                          1       5    3dxz              0.162492      -0.065641
                                                         0.380389       0.658491
                                                         1.169596       0.361417
                          1       5    3dy2              0.162492      -0.037898
                                                         0.380389       0.380180
                                                         1.169596       0.208664
                          1       5    3dyz              0.162492      -0.065641
                                                         0.380389       0.658491
                                                         1.169596       0.361417
                          1       5    3dz2              0.162492      -0.037898
                                                         0.380389       0.380180
                                                         1.169596       0.208664

                          2       1    1s         

     AE Potential information for                                            ALL

       Description:                                       All-electron potential
                                          Krack, Parrinello, PCCP 2, 2105 (2000)

       Gaussian exponent of the core charge distribution:               8.154466
       Electronic configuration (s p d ...):                           4   4   0


 MOLECULE KIND INFORMATION


 All atoms are their own molecule, skipping detailed information


 TOTAL NUMBERS AND MAXIMUM NUMBERS

  Total number of            - Atomic kinds:                                   4
                             - Atoms:                                          4
                             - Shell sets:                                     7
                             - Shells:                                        22
                             - Primitive Cartesian functions:                 25
                             - Cartesian basis functions:                     51
                             - Spherical basis functions:                     48

  Maximum angular momentum of the orbital basis functions:                     2


 MODULE QUICKSTEP: ATOMIC COORDINATES IN ANGSTROM

   Atom Kind Element         X             Y             Z       Z(eff)     Mass
      1    1 C     6     14.347319     15.000000     15.000000   6.0000  12.0107
      2    2 H     1     13.286773     15.000000     15.000000   1.0000   1.0079
      3    3 N     7     15.509349     15.000000     15.000000   7.0000  14.0067
      4    4 O     8     16.713227     15.000000     15.000000   8.0000  15.9994



 SCF PARAMETERS         Density guess:                                    ATOMIC
                        --------------------------------------------------------
                        max_scf:                                             500
                        max_scf_history:                                       0
                        max_diis:                                              4
                        --------------------------------------------------------
                        eps_scf:                                        1.00E-06
                        eps_scf_history:                                0.00E+00
                        eps_diis:                                       1.00E-01
                        eps_eigval:                                     1.00E-05
                        --------------------------------------------------------
                        level_shift [a.u.]:                             0.000000
                        added MOs                                        37    0
                        --------------------------------------------------------
                        Mixing method:                            BROYDEN_MIXING
                                                charge density mixing in g-space
                        --------------------------------------------------------
                        No outer SCF

 PW_GRID| Information for grid number                                          1
 PW_GRID| Grid distributed over                                    48 processors
 PW_GRID| Real space group dimensions                                    48    1
 PW_GRID| the grid is blocked:                                                NO
 PW_GRID| Cutoff [a.u.]                                                    250.0
 PW_GRID| spherical cutoff:                                                   NO
 PW_GRID|   Bounds   1           -202     202                Points:         405
 PW_GRID|   Bounds   2           -202     202                Points:         405
 PW_GRID|   Bounds   3           -202     202                Points:         405
 PW_GRID| Volume element (a.u.^3)  0.2743E-02     Volume (a.u.^3)    182205.0337
 PW_GRID| Grid span                                                    FULLSPACE
 PW_GRID|   Distribution                         Average         Max         Min
 PW_GRID|   G-Vectors                          1383960.9     1384290     1383885
 PW_GRID|   G-Rays                                3417.2        3418        3417
 PW_GRID|   Real Space Points                  1383960.9     1476225     1312200

 PW_GRID| Information for grid number                                          2
 PW_GRID| Number of the reference grid                                         1
 PW_GRID| Grid distributed over                                    48 processors
 PW_GRID| Real space group dimensions                                    48    1
 PW_GRID| the grid is blocked:                                                NO
 PW_GRID| Cutoff [a.u.]                                                     83.3
 PW_GRID| spherical cutoff:                                                   NO
 PW_GRID|   Bounds   1           -120     119                Points:         240
 PW_GRID|   Bounds   2           -120     119                Points:         240
 PW_GRID|   Bounds   3           -120     119                Points:         240
 PW_GRID| Volume element (a.u.^3)  0.1318E-01     Volume (a.u.^3)    182205.0337
 PW_GRID| Grid span                                                    FULLSPACE
 PW_GRID|   Distribution                         Average         Max         Min
 PW_GRID|   G-Vectors                           288000.0      288720      287520
 PW_GRID|   G-Rays                                1200.0        1203        1198
 PW_GRID|   Real Space Points                   288000.0      288000      288000

 PW_GRID| Information for grid number                                          3
 PW_GRID| Number of the reference grid                                         1
 PW_GRID| Grid distributed over                                    48 processors
 PW_GRID| Real space group dimensions                                    48    1
 PW_GRID| the grid is blocked:                                                NO
 PW_GRID| Cutoff [a.u.]                                                     27.8
 PW_GRID| spherical cutoff:                                                   NO
 PW_GRID|   Bounds   1            -67      67                Points:         135
 PW_GRID|   Bounds   2            -67      67                Points:         135
 PW_GRID|   Bounds   3            -67      67                Points:         135
 PW_GRID| Volume element (a.u.^3)  0.7406E-01     Volume (a.u.^3)    182205.0337
 PW_GRID| Grid span                                                    FULLSPACE
 PW_GRID|   Distribution                         Average         Max         Min
 PW_GRID|   G-Vectors                            51257.8       51570       51030
 PW_GRID|   G-Rays                                 379.7         382         378
 PW_GRID|   Real Space Points                    51257.8       54675       36450

 PW_GRID| Information for grid number                                          4
 PW_GRID| Number of the reference grid                                         1
 PW_GRID| Grid distributed over                                    48 processors
 PW_GRID| Real space group dimensions                                    48    1
 PW_GRID| the grid is blocked:                                                NO
 PW_GRID| Cutoff [a.u.]                                                      9.3
 PW_GRID| spherical cutoff:                                                   NO
 PW_GRID|   Bounds   1            -40      39                Points:          80
 PW_GRID|   Bounds   2            -40      39                Points:          80
 PW_GRID|   Bounds   3            -40      39                Points:          80
 PW_GRID| Volume element (a.u.^3)  0.3559         Volume (a.u.^3)    182205.0337
 PW_GRID| Grid span                                                    FULLSPACE
 PW_GRID|   Distribution                         Average         Max         Min
 PW_GRID|   G-Vectors                            10666.7       10800       10560
 PW_GRID|   G-Rays                                 133.3         135         132
 PW_GRID|   Real Space Points                    10666.7       12800        6400

 POISSON| Solver                                                         WAVELET
 POISSON| Wavelet| Scaling function                                           40
 POISSON| Periodicity                                                       NONE

 RS_GRID| Information for grid number                                          1
 RS_GRID|   Bounds   1           -202     202                Points:         405
 RS_GRID|   Bounds   2           -202     202                Points:         405
 RS_GRID|   Bounds   3           -202     202                Points:         405
 RS_GRID| Real space distribution over                                  3 groups
 RS_GRID| Real space distribution along direction                              1
 RS_GRID| Border size                                                         34
 RS_GRID| Real space distribution over                                  4 groups
 RS_GRID| Real space distribution along direction                              2
 RS_GRID| Border size                                                         34
 RS_GRID| Real space distribution over                                  4 groups
 RS_GRID| Real space distribution along direction                              3
 RS_GRID| Border size                                                         34
 RS_GRID|   Distribution                         Average         Max         Min
 RS_GRID|   Planes                                 203.0         203         203
 RS_GRID|   Distribution                         Average         Max         Min
 RS_GRID|   Planes                                 169.2         170         169
 RS_GRID|   Distribution                         Average         Max         Min
 RS_GRID|   Planes                                 169.2         170         169

 RS_GRID| Information for grid number                                          2
 RS_GRID|   Bounds   1           -120     119                Points:         240
 RS_GRID|   Bounds   2           -120     119                Points:         240
 RS_GRID|   Bounds   3           -120     119                Points:         240
 RS_GRID| Real space distribution over                                  3 groups
 RS_GRID| Real space distribution along direction                              1
 RS_GRID| Border size                                                         37
 RS_GRID| Real space distribution over                                  4 groups
 RS_GRID| Real space distribution along direction                              2
 RS_GRID| Border size                                                         37
 RS_GRID| Real space distribution over                                  4 groups
 RS_GRID| Real space distribution along direction                              3
 RS_GRID| Border size                                                         37
 RS_GRID|   Distribution                         Average         Max         Min
 RS_GRID|   Planes                                 154.0         154         154
 RS_GRID|   Distribution                         Average         Max         Min
 RS_GRID|   Planes                                 134.0         134         134
 RS_GRID|   Distribution                         Average         Max         Min
 RS_GRID|   Planes                                 134.0         134         134

 RS_GRID| Information for grid number                                          3
 RS_GRID|   Bounds   1            -67      67                Points:         135
 RS_GRID|   Bounds   2            -67      67                Points:         135
 RS_GRID|   Bounds   3            -67      67                Points:         135
 RS_GRID| Real space fully replicated
 RS_GRID| Group size                                                           1

 RS_GRID| Information for grid number                                          4
 RS_GRID|   Bounds   1            -40      39                Points:          80
 RS_GRID|   Bounds   2            -40      39                Points:          80
 RS_GRID|   Bounds   3            -40      39                Points:          80
 RS_GRID| Real space fully replicated
 RS_GRID| Group size                                                           1

  HFX_INFO| Replica ID:                                                        1
  HFX_INFO| FRACTION:                                               0.2500000000
  HFX_INFO| Interaction Potential:                                       COULOMB
  HFX_INFO| EPS_SCHWARZ:                                                 1.0E-10
  HFX_INFO| EPS_SCHWARZ_FORCES                                           1.0E-08
  HFX_INFO| EPS_STORAGE_SCALING:                                         1.0E+00
  HFX_INFO| NBINS:                                                            64
  HFX_INFO| BLOCK_SIZE:                                                        1
  HFX_INFO| Number of periodic shells considered:                           NONE
[...]
 library.
 https://doi.org/10.1016/j.parco.2014.03.012

 M. Del Ben, J. Hutter, J. VandeVondele.
 J. Chem. Theory Comput. 9, 2654-2671 (2013).
 Electron Correlation in the Condensed Phase from a Resolution of Identity 
 Approach Based on the Gaussian and Plane Waves Scheme.
 https://doi.org/10.1021/ct4002202

 M. Del Ben, J. Hutter, J. VandeVondele.
 J. Chem. Theory Comput. 8, 4177-4188 (2012).
 Second-Order Moller-Plesset Perturbation Theory in the Condensed Phase: An 
 Efficient and Massively Parallel Gaussian and Plane Waves Approach.
 https://doi.org/10.1021/ct300531w

 M. Guidon, J. Hutter, J. VandeVondele.
 J. Chem. Theory Comput. 5, 3010-3021 (2009).
 Robust Periodic Hartree-Fock Exchange for Large-Scale Simulations Using 
 Gaussian Basis Sets.
 https://doi.org/10.1021/ct900494g

 M. Guidon, F. Schiffmann, J. Hutter, J. VandeVondele.
 J. Chem. Phys. 128, 214104 (2008).
 Ab initio molecular dynamics using hybrid density functionals.
 https://doi.org/10.1063/1.2931945

 L. Genovese, T. Deutsch, S. Goedecker.
 J. Chem. Phys. 127, 054704 (2007).
 Efficient and accurate three-dimensional Poisson solver for surface problems.
 https://doi.org/10.1063/1.2754685

 J. VandeVondele, J. Hutter.
 J. Chem. Phys. 127, 114105 (2007).
 Gaussian basis sets for accurate calculations on molecular systems in gas and 
 condensed phases.
 https://doi.org/10.1063/1.2770708

 L. Genovese, T. Deutsch, A. Neelov, S. Goedecker, G. Beylkin.
 J. Chem. Phys. 125, 074105 (2006).
 Efficient solution of Poisson's equation with free boundary conditions.
 https://doi.org/10.1063/1.2335442

 M. Frigo, S. G. Johnson.
 Proc. IEEE 93, 216-231 (2005).
 The design and implementation of FFTW3.
 https://doi.org/10.1109/JPROC.2004.840301

 M. Krack, M. Parrinello.
 Phys. Chem. Chem. Phys. 2, 2105-2112 (2000).
 All-electron ab-initio molecular dynamics.
 https://doi.org/10.1039/b001167n

 G. Lippert, J. Hutter, M. Parrinello.
 Theor. Chem. Acc. 103, 124-140 (1999).
 The Gaussian and augmented-plane-wave density functional method for ab initio 
 molecular dynamics simulations.
 https://doi.org/10.1007/s002140050523

 J. P. Perdew, K. Burke, M. Ernzerhof.
 Phys. Rev. Lett. 77, 3865-3868 (1996).
 Generalized gradient approximation made simple.
 https://doi.org/10.1103/PhysRevLett.77.3865


 -------------------------------------------------------------------------------
 -                                                                             -
 -                                T I M I N G                                  -
 -                                                                             -
 -------------------------------------------------------------------------------
 SUBROUTINE                       CALLS  ASD         SELF TIME        TOTAL TIME
                                MAXIMUM       AVERAGE  MAXIMUM  AVERAGE  MAXIMUM
 CP2K                                 1  1.0    0.043    0.067  182.066  182.066
 qs_energies                          1  2.0    0.000    0.001  181.079  181.313
 scf_env_do_scf                       1  3.0    0.000    0.000  177.835  177.836
 scf_env_do_scf_inner_loop           61  4.0    0.002    0.004  177.835  177.835
 qs_ks_build_kohn_sham_matrix        62  7.0    0.010    0.011  134.852  134.866
 qs_ks_update_qs_env                 61  5.0    0.000    0.000  133.463  133.477
 rebuild_ks_matrix                   61  6.0    0.000    0.000  133.458  133.472
 fft_wrap_pw1pw2                   1294  9.9    0.029    0.038   73.814   75.067
 fft_wrap_pw1pw2_250                922 11.1    3.175    3.536   71.471   72.589
 fft3d_ps                          1294 11.9   29.077   32.152   59.475   60.649
 pw_poisson_solve                    62  8.0    1.099    1.218   53.998   54.031
 qs_vxc_create                       62  8.0    0.001    0.001   42.915   42.916
 xc_vxc_pw_create                    61  9.0    0.764    0.864   42.915   42.915
 ps_wavelet_solve                    62  9.0   27.925   31.476   35.770   36.020
 xc_pw_derive                       366 11.0    0.004    0.005   31.988   32.959
 mp_alltoall_d54                     62 10.0    5.172   27.924    5.172   27.924
 mp_alltoall_z22v                  1294 13.9   23.372   26.580   23.372   26.580
 qs_rho_update_rho_low               62  5.0    0.001    0.001   23.066   23.066
 calculate_rho_elec                  62  6.0    0.606    0.646   22.975   22.975
 xc_pw_divergence                    61 10.0    0.002    0.003   21.652   22.482
 gspace_mixing                       60  5.0    0.586    0.625   21.153   21.153
 xc_rho_set_and_dset_create          61 10.0    0.544    0.726   20.097   21.057
 yz_to_x                            618 12.8    2.070    2.505   14.380   16.942
 x_to_yz                            676 13.1    4.934    5.305   15.996   16.769
 density_rs2pw                       62  7.0    0.004    0.005   16.254   16.505
 broyden_mixing                      60  6.0   15.614   15.910   15.872   15.955
 sum_up_and_integrate                62  8.0    0.001    0.001   12.586   12.613
 integrate_v_rspace                  62  9.0    0.002    0.002   12.401   12.506
 potential_pw2rs                     62 10.0    0.032    0.038   12.049   12.144
 prepare_gapw_den                    62  8.0    0.001    0.001    9.401    9.555
 put_rho0_on_grid                    62  9.0    0.610    0.654    8.843    8.997
 transfer_pw2rs                     311 10.6    0.004    0.006    8.791    8.930
 transfer_rs2pw                     312  8.4    0.008    0.012    7.774    7.896
 mp_waitany                        8250 11.5    6.897    7.529    6.897    7.529
 grid_collocate_task_list            62  7.0    5.843    6.094    5.843    6.094
 transfer_pw2rs_250                 125 10.9    1.777    1.946    5.753    6.014
 transfer_rs2pw_250                 126  9.9    2.014    2.218    5.373    5.534
 mp_alltoall_d11v                  1136  9.4    2.669    5.394    2.669    5.394
 hfx_ks_matrix                       62  8.0    0.002    0.003    5.076    5.152
 integrate_four_center               62  9.0    1.315    2.794    5.072    5.148
 mp_alltoall_d45                     63 10.0    2.481    4.935    2.481    4.935
 pw_scatter_p                       676 12.1    4.835    4.913    4.835    4.913
 pw_gather_p                        618 11.8    4.073    4.643    4.073    4.643
 xc_functional_eval                 427 10.9    0.001    0.002    3.559    4.242
 pbe_lda_eval                       427 11.9    3.558    4.241    3.558    4.241
 pw_derive                          552 11.3    3.560    3.816    3.560    3.816
 integrate_vhg0_rspace               62  8.0    0.018    0.021    3.707    3.720
 mp_sum_d                          1821  6.2    2.751    3.520    2.751    3.520
 mp_sync                            737  9.4    1.502    2.823    1.502    2.823
 mp2_main                             1  3.0    0.000    0.000    2.234    2.468
 cp2k_distribution_to_z_slices       62  9.0    1.152    1.226    2.118    2.247
 pw_copy                            925 10.6    2.111    2.233    2.111    2.233
 mp_waitall_1                     19130 12.0    0.972    2.175    0.972    2.175
 fft_wrap_pw1pw2_90                 124 10.5    0.092    0.116    1.874    2.140
 pw_poisson_set                      63  8.9    0.002    0.003    1.971    2.004
 calc_screening_functions             1 10.0    1.270    1.353    1.638    1.730
 pw_axpy                            677  9.2    1.597    1.696    1.597    1.696
 transfer_pw2rs_90                   62 12.0    0.320    0.359    1.298    1.691
 rs_grid_zero                       313 11.1    1.620    1.691    1.620    1.691
 pw_copy_to_array                   618 11.8    1.294    1.434    1.294    1.434
 transfer_pw2rs_30                   62 12.0    0.841    0.928    1.290    1.409
 calculate_vxc_atom                  62  8.0    0.032    0.275    1.399    1.399
 compute_vec_Sigma_x_minus_vxc_       1  4.0    0.000    0.000    1.398    1.398
 transfer_rs2pw_90                   62  9.0    0.297    0.330    1.087    1.195
 pw_poisson_rebuild                  62  9.0    0.000    0.000    1.111    1.140
 ps_wavelet_create                    1 10.0    0.000    0.000    1.111    1.140
 RS_z_slice_distribution              1 11.0    0.995    1.040    1.111    1.140
 pw_integral_ab_c1d_c1d_gs           62  9.0    0.908    0.915    1.028    1.120
 transfer_rs2pw_30                   62  9.0    0.486    0.513    0.999    1.022
 gaVxcgb_GC                         183  9.0    0.021    1.013    0.021    1.013
 pw_copy_from_array                 676 12.1    0.823    1.013    0.823    1.013
 mp_sum_dm                          624  7.6    0.492    0.998    0.492    0.998
 mp_sendrecv_dv                    5828 10.0    0.719    0.745    0.719    0.745
 mp_isend_dv                       7908 11.7    0.403    0.729    0.403    0.729
 mp2_gpw_main                         1  4.0    0.000    0.000    0.651    0.661
 pw_zero                            368 10.3    0.591    0.644    0.591    0.644
 powell_optimize                 238807 11.0    0.595    0.618    0.595    0.618
 mp_irecv_dm3                      2250 11.5    0.308    0.615    0.308    0.615
 init_scf_run                         1  3.0    0.000    0.000    0.592    0.593
 mp_isend_dm3                      2250 11.5    0.237    0.591    0.237    0.591
 qs_scf_new_mos                      61  5.0    0.001    0.001    0.566    0.586
 scf_env_initial_rho_setup            1  4.0    0.000    0.000    0.585    0.585
 calculate_rho_atom                 186  9.0    0.130    0.540    0.130    0.540
 mp_sum_dv                         3805 11.4    0.477    0.528    0.477    0.528
 rpa_ri_compute_en                    1  5.0    0.000    0.000    0.524    0.524
 rpa_num_int                          1  6.0    0.001    0.001    0.519    0.520
 transfer_pw2rs_10                   62 12.0    0.213    0.231    0.445    0.469
 calc_pair_dist_radii                 1 10.0    0.211    0.227    0.438    0.464
 qs_init_subsys                       1  2.0    0.006    0.010    0.442    0.442
 qs_env_setup                         1  3.0    0.000    0.000    0.431    0.433
 qs_env_rebuild_pw_env                2  3.5    0.000    0.000    0.429    0.432
 mp_isendrecv_dv                  11656 12.0    0.189    0.432    0.189    0.432
 pw_env_rebuild                       1  5.0    0.001    0.001    0.429    0.431
 pw_grid_setup                        4  6.0    0.000    0.000    0.418    0.420
 pw_grid_setup_internal               4  7.0    0.010    0.013    0.418    0.420
 cp_fm_syevd                         67  7.0    0.000    0.001    0.400    0.401
 mp_sum_i                            19  9.5    0.235    0.397    0.235    0.397
 restraint_control                    1  2.0    0.000    0.000    0.234    0.397
 mp2_main_alloc_hfx                   1  4.0    0.162    0.397    0.162    0.397
 Vh_1c_gg_integrals                  62  8.0    0.006    0.090    0.277    0.395
 fft_wrap_pw1pw2_30                 124 10.5    0.015    0.017    0.354    0.365
 rs_gather_matrices                  62 10.0    0.001    0.002    0.320    0.355
 cp_fm_redistribute_end              67  8.0    0.190    0.353    0.192    0.355
 eigensolver_symm                    62  6.0    0.002    0.002    0.337    0.338
 scale_and_distribute               124 10.0    0.308    0.330    0.308    0.330
 grid_integrate_task_list            62 10.0    0.031    0.327    0.031    0.327
 cp_fm_syevd_base                    67  8.0    0.162    0.325    0.162    0.325
 pw_grid_sort                         4  8.0    0.223    0.226    0.318    0.322
 transfer_rs2pw_10                   62  9.0    0.101    0.110    0.307    0.319
 mp_max_i                           575  2.8    0.186    0.307    0.186    0.307
 qs_energies_init_hamiltonians        1  3.0    0.000    0.000    0.306    0.306
 compute_GW_self_energy             100  7.0    0.001    0.001    0.249    0.264
 integrate_four_center_main          62 10.0    0.012    0.100    0.046    0.227
 integrate_four_center_bin         5398 11.0    0.035    0.222    0.035    0.222
 create_qs_kind_set                   1  2.0    0.000    0.000    0.205    0.209
 read_qs_kind                         4  3.0    0.083    0.092    0.205    0.209
 pw_scale                           245  9.5    0.161    0.195    0.161    0.195
 compute_GW_self_energy_deep        100  8.0    0.091    0.106    0.179    0.194
 qs_env_update_s_mstruct              1  4.0    0.000    0.000    0.190    0.191
 calculate_rho_core                   1  5.0    0.010    0.011    0.178    0.187
 mp_sum_l                           870  5.8    0.145    0.167    0.145    0.167
 parallel_gemm_fm                   342  8.6    0.000    0.001    0.150    0.156
 parallel_gemm_fm_gemm              342  9.6    0.000    0.001    0.150    0.155
 cp_fm_gemm                         342 10.6    0.149    0.155    0.149    0.155
 calculate_dm_sparse                 61  6.0    0.000    0.001    0.148    0.150
 mixing_init                          1  5.0    0.146    0.149    0.149    0.150
 cp_dbcsr_plus_fm_fm_t               61  7.0    0.001    0.001    0.148    0.150
 integrate_four_center_load          62 10.0    0.000    0.001    0.122    0.140
 hfx_load_balance                     1 11.0    0.000    0.000    0.121    0.140
 rpa_num_int_RPA_matrix_operati     100  7.0    0.001    0.002    0.137    0.137
 hfx_load_balance_range               1 12.0    0.000    0.000    0.118    0.136
 parser_read_line                 16136  4.0    0.006    0.006    0.122    0.129
 parser_read_line_low                29  5.0    0.008    0.047    0.116    0.124
 copy_dbcsr_to_fm                    84  6.4    0.002    0.002    0.097    0.117
 broadcast_input_information         29  6.0    0.029    0.034    0.108    0.116
 start_bse_calculation                1  7.0    0.000    0.000    0.115    0.115
 build_core_hamiltonian_matrix        1  4.0    0.000    0.000    0.114    0.114
 mp2_ri_gpw_compute_in                1  5.0    0.000    0.000    0.112    0.113
 overlap_condnum                      1  5.0    0.000    0.000    0.112    0.112
 scf_post_calculation_gpw             1  3.0    0.000    0.000    0.112    0.112
 write_available_results              1  4.0    0.000    0.000    0.111    0.111
 write_mo_free_results                1  5.0    0.013    0.014    0.111    0.111
 dbcsr_multiply_generic              90  8.1    0.004    0.004    0.108    0.111
 mp2_ri_gpw_compute_in_loop           1  6.0    0.000    0.000    0.108    0.108
 vxc_of_r_new                       366  9.0    0.000    0.016    0.002    0.103
 fft_wrap_pw1pw2_10                 124 10.5    0.003    0.004    0.087    0.102
 contract_B_L                         4  7.0    0.001    0.001    0.091    0.097
 sort_shells                          4  9.0    0.095    0.096    0.095    0.096
 dbcsr_complete_redistribute        210  8.4    0.008    0.011    0.093    0.095
 calculate_rho_atom_coeff            62  6.0    0.006    0.012    0.090    0.091
 xc_pw_smooth                        61 10.0    0.000    0.000    0.064    0.088
 calc_mat_Q                         100  8.0    0.000    0.000    0.084    0.086
 contract_S_to_Q                    100  9.0    0.000    0.000    0.083    0.085
 arnoldi_conjugate_gradient           5  6.0    0.003    0.003    0.085    0.085
 dbcsr_desymmetrize_deep             86  7.4    0.002    0.002    0.056    0.076
 dbt_total                            8  8.0    0.000    0.000    0.067    0.067
 dbt_contract                         4  9.0    0.001    0.001    0.063    0.064
 cp_fm_to_fm_submat_general         112 10.1    0.058    0.063    0.058    0.063
 cp_fm_cholesky_invert              101  8.0    0.060    0.063    0.060    0.063
 diagonalize_C                        1  8.0    0.000    0.000    0.061    0.061
 update_ks_atom                      62  8.0    0.004    0.006    0.040    0.061
 mp_bcast_i_src                     116  7.0    0.044    0.057    0.044    0.057
 mp_bcast_dm                        372  9.0    0.036    0.056    0.036    0.056
 cp_fm_power                          2  7.5    0.001    0.001    0.056    0.056
 mp_alltoall_i22                    296  9.1    0.035    0.055    0.035    0.055
 make_m2s                           180  9.1    0.003    0.003    0.052    0.055
 copy_fm_to_dbcsr                   126  8.1    0.000    0.001    0.053    0.055
 mp_irecv_dv                       7852 11.7    0.029    0.053    0.029    0.053
 pw_grid_assign                       4  8.0    0.050    0.051    0.051    0.052
 mp_bcast_am_src                     29  7.0    0.027    0.037    0.034    0.051
 hirshfeld_integration                1  6.0    0.001    0.002    0.050    0.050
 dbcsr_sym_matrix_vector_mult       338  7.0    0.005    0.006    0.045    0.050
 cp_fm_redistribute_start            67  8.0    0.036    0.039    0.045    0.049
 dbt_tas_multiply                     8 11.5    0.000    0.000    0.049    0.049
 dbt_tas_total                        8 12.5    0.001    0.005    0.049    0.049
 compute_Erpa_by_freq_int           100  8.0    0.001    0.001    0.048    0.048
 calculate_hirshfeld_normalizat       1  6.0    0.001    0.002    0.047    0.047
 cp_fm_cholesky_decompose           102  9.0    0.045    0.046    0.045    0.046
 create_hermitian_form_of_ABBA        1  8.0    0.000    0.000    0.044    0.045
 offload_free_buffer                 70  8.3    0.028    0.041    0.028    0.041
 dbcsr_finalize                    1705 10.7    0.006    0.012    0.021    0.038
 mp_cart_create                     417 10.3    0.031    0.037    0.032    0.038
 multiply_cannon                     90  9.1    0.007    0.007    0.036    0.037
 dbcsr_add_d                        556  7.2    0.001    0.001    0.006    0.033
 dbcsr_add_anytype                  556  8.2    0.001    0.004    0.006    0.032
 mp_alltoall_i11v                   716  9.3    0.029    0.029    0.029    0.029
 integrate_four_center_getP          62 10.0    0.005    0.005    0.022    0.029
 mp_comm_split_direct                48 14.5    0.018    0.028    0.019    0.028
 make_images                        180 10.1    0.005    0.005    0.024    0.025
 mp_maxloc_dv                      1521  1.0    0.022    0.024    0.022    0.024
 mp2_main_free_hfx                    1  4.0    0.009    0.023    0.009    0.023
 multiply_cannon_loop                90 10.1    0.005    0.005    0.022    0.023
 postprocess_bse                      1  9.0    0.000    0.000    0.022    0.022
 hybrid_alltoall_any                266 10.9    0.002    0.002    0.021    0.022
 integrate_four_center_dist_KS       62 10.0    0.005    0.005    0.021    0.021
 dbt_pgrid_create_expert             84 10.8    0.000    0.000    0.015    0.021
 pw_grid_remap                        4  8.0    0.008    0.008    0.017    0.020
 dbt_tas_distribution_new           100 11.9    0.012    0.012    0.019    0.019
 dbt_distribution_new_expert         76 10.1    0.001    0.001    0.019    0.019
 dbcsr_col_vec_to_rep_row           338  8.0    0.002    0.003    0.013    0.019
 dbcsr_merge_all                   1101 11.5    0.008    0.015    0.011    0.019
 dbcsr_crop_matrix                  244 10.0    0.002    0.002    0.017    0.018
 dbt_tas_estimate_result_nze          4 12.0    0.000    0.001    0.018    0.018
 -------------------------------------------------------------------------------

 The number of warnings for this run is : 1
 
 -------------------------------------------------------------------------------
  **** **** ******  **  PROGRAM ENDED AT                 2025-03-26 06:59:41.884
 ***** ** ***  *** **   PROGRAM RAN ON                              i05r06c06s12
 **    ****   ******    PROGRAM RAN BY                                   di38fab
 ***** **    ** ** **   PROGRAM PROCESS ID                                723876
  **** **  *******  **  PROGRAM STOPPED IN /hppfs/scratch/04/di38fab/05_MOL/W4-1
                                           1+ALK/hcno/SZVSR/GW+BSE/1e-4
