 DBCSR| CPU Multiplication driver                                           XSMM (U)
 DBCSR| Multrec recursion limit                                              512 (U)
 DBCSR| Multiplication stack size                                           1000 (D)
 DBCSR| Maximum elements for images                                    UNLIMITED (U)
 DBCSR| Multiplicative factor virtual images                                   1 (U)
 DBCSR| Use multiplication densification                                       T (D)
 DBCSR| Multiplication size stacks                                             3 (U)
 DBCSR| Use memory pool for CPU allocation                                     F (U)
 DBCSR| Number of 3D layers                                               SINGLE (U)
 DBCSR| Use MPI memory allocation                                              F (U)
 DBCSR| Use RMA algorithm                                                      F (U)
 DBCSR| Use Communication thread                                               T (U)
 DBCSR| Communication thread load                                             75 (D)
 DBCSR| MPI: My process id                                                     0
 DBCSR| MPI: Number of processes                                              16
 DBCSR| OMP: Current number of threads                                         4
 DBCSR| OMP: Max number of threads                                             4
 DBCSR| Split modifier for TAS multiplication algorithm                  1.0E+00 (U)


  **** **** ******  **  PROGRAM STARTED AT               2025-07-01 14:20:13.356
 ***** ** ***  *** **   PROGRAM STARTED ON                 n2cn0657.ab2021.local
 **    ****   ******    PROGRAM STARTED BY                              metdyn02
 ***** **    ** ** **   PROGRAM PROCESS ID                               1392295
  **** **  *******  **  PROGRAM STARTED IN /scratch/hpc-prf-metdyn/metdyn02_Remi
                                           /10_MOL/05_MOL/W4-11+ALK/t-hono/mini-
                                           SZV/TDDFT/1e-4

 CP2K| version string:                 CP2K version 2025.1 (Development Version)
 CP2K| source code revision number:                                  git:400017f
 CP2K| cp2kflags: omp libint fftw3 libxc libgrpp elpa parallel scalapack mpi_f08
 CP2K|             cosma xsmm plumed2 spglib libvori libbqb libvdwxc hdf5
 CP2K| is freely available from                            https://www.cp2k.org/
 CP2K| Program compiled at                         Thu Jun 26 12:02:16 CEST 2025
 CP2K| Program compiled on                                              n2login1
 CP2K| Program compiled for                                                local
 CP2K| Data directory path    /opt/software/pc2/EB-SW/software/CP2K/2024.1-foss-
 CP2K| Input file name                                                    GW.inp

 GLOBAL| Force Environment number                                              1
 GLOBAL| Basis set file name            /scratch/hpc-prf-metdyn/metdyn02_Remi/BA
 GLOBAL| Potential file name            /pc2/groups/hpc-prf-metdyn/metdyn02_Remi
 GLOBAL| MM Potential file name                                     MM_POTENTIAL
 GLOBAL| Coordinate file name                                      __STD_INPUT__
 GLOBAL| Method name                                                        CP2K
 GLOBAL| Project name                                                       MoS2
 GLOBAL| Run type                                                         ENERGY
 GLOBAL| FFT library                                                       FFTW3
 GLOBAL| Diagonalization library                                            ELPA
 GLOBAL| Cholesky decomposition library                                ScaLAPACK
 GLOBAL| DGEMM library                                                      BLAS
 GLOBAL| Minimum number of eigenvectors for ELPA usage                        16
 GLOBAL| Orthonormality check for eigenvectors                          DISABLED
 GLOBAL| Matrix multiplication library                                     COSMA
 GLOBAL| All-to-all communication in single precision                          F
 GLOBAL| FFTs using library dependent lengths                                  F
 GLOBAL| Grid backend                                                       AUTO
 GLOBAL| Global print level                                               MEDIUM
 GLOBAL| MPI I/O enabled                                                       T
 GLOBAL| Total number of message passing processes                            16
 GLOBAL| Number of threads for this process                                    4
 GLOBAL| This output is from process                                           0
 GLOBAL| OpenMP stack size per thread (OMP_STACKSIZE)                    default
 GLOBAL| CPU model name                          AMD EPYC 7763 64-Core Processor
 GLOBAL| CPUID                                                              1002

 MEMORY| system memory details [Kb]
 MEMORY|                        rank 0           min           max       average
 MEMORY| MemTotal            263897608     263897604     263897608     263897606
 MEMORY| MemFree             247818000     247818000     249133016     248475508
 MEMORY| Buffers                 72320         45208         72320         58764
 MEMORY| Cached                9134616       7849128       9134616       8491872
 MEMORY| Slab                  2291268       1933044       2291268       2112156
 MEMORY| SReclaimable          1008592        412384       1008592        710488
 MEMORY| MemLikelyFree       258033528     257439736     258033528     257736632


 *** Fundamental physical constants (SI units) ***

 *** Literature: B. J. Mohr and B. N. Taylor,
 ***             CODATA recommended values of the fundamental physical
 ***             constants: 2006, Web Version 5.1
 ***             http://physics.nist.gov/constants

 Speed of light in vacuum [m/s]                             2.99792458000000E+08
 Magnetic constant or permeability of vacuum [N/A**2]       1.25663706143592E-06
 Electric constant or permittivity of vacuum [F/m]          8.85418781762039E-12
 Planck constant (h) [J*s]                                  6.62606896000000E-34
 Planck constant (h-bar) [J*s]                              1.05457162825177E-34
 Elementary charge [C]                                      1.60217648700000E-19
 Electron mass [kg]                                         9.10938215000000E-31
 Electron g factor [ ]                                     -2.00231930436220E+00
 Proton mass [kg]                                           1.67262163700000E-27
 Fine-structure constant                                    7.29735253760000E-03
 Rydberg constant [1/m]                                     1.09737315685270E+07
 Avogadro constant [1/mol]                                  6.02214179000000E+23
 Boltzmann constant [J/K]                                   1.38065040000000E-23
 Atomic mass unit [kg]                                      1.66053878200000E-27
 Bohr radius [m]                                            5.29177208590000E-11

 *** Conversion factors ***

 [u] -> [a.u.]                                              1.82288848426455E+03
 [Angstrom] -> [Bohr] = [a.u.]                              1.88972613288564E+00
 [a.u.] = [Bohr] -> [Angstrom]                              5.29177208590000E-01
 [a.u.] -> [s]                                              2.41888432650478E-17
 [a.u.] -> [fs]                                             2.41888432650478E-02
 [a.u.] -> [J]                                              4.35974393937059E-18
 [a.u.] -> [N]                                              8.23872205491840E-08
 [a.u.] -> [K]                                              3.15774647902944E+05
 [a.u.] -> [kJ/mol]                                         2.62549961709828E+03
 [a.u.] -> [kcal/mol]                                       6.27509468713739E+02
 [a.u.] -> [Pa]                                             2.94210107994716E+13
 [a.u.] -> [bar]                                            2.94210107994716E+08
 [a.u.] -> [atm]                                            2.90362800883016E+08
 [a.u.] -> [eV]                                             2.72113838565563E+01
 [a.u.] -> [Hz]                                             6.57968392072181E+15
 [a.u.] -> [1/cm] (wave numbers)                            2.19474631370540E+05
 [a.u./Bohr**2] -> [1/cm]                                   5.14048714338585E+03
 

 CELL_TOP| Volume [angstrom^3]:                                     27000.000000
 CELL_TOP| Vector a [angstrom    30.000     0.000     0.000   |a| =    30.000000
 CELL_TOP| Vector b [angstrom     0.000    30.000     0.000   |b| =    30.000000
 CELL_TOP| Vector c [angstrom     0.000     0.000    30.000   |c| =    30.000000
 CELL_TOP| Angle (b,c), alpha [degree]:                                90.000000
 CELL_TOP| Angle (a,c), beta  [degree]:                                90.000000
 CELL_TOP| Angle (a,b), gamma [degree]:                                90.000000
 CELL_TOP| Numerically orthorhombic:                                         YES
 CELL_TOP| Periodicity                                                      NONE

 GENERATE|  Preliminary Number of Bonds generated:                             0
 GENERATE|  Achieved consistency in connectivity generation.

 CELL| Volume [angstrom^3]:                                         27000.000000
 CELL| Vector a [angstrom]:      30.000     0.000     0.000   |a| =    30.000000
 CELL| Vector b [angstrom]:       0.000    30.000     0.000   |b| =    30.000000
 CELL| Vector c [angstrom]:       0.000     0.000    30.000   |c| =    30.000000
 CELL| Angle (b,c), alpha [degree]:                                    90.000000
 CELL| Angle (a,c), beta  [degree]:                                    90.000000
 CELL| Angle (a,b), gamma [degree]:                                    90.000000
 CELL| Numerically orthorhombic:                                             YES
 CELL| Periodicity                                                          NONE

 CELL_REF| Volume [angstrom^3]:                                     27000.000000
 CELL_REF| Vector a [angstrom    30.000     0.000     0.000   |a| =    30.000000
 CELL_REF| Vector b [angstrom     0.000    30.000     0.000   |b| =    30.000000
 CELL_REF| Vector c [angstrom     0.000     0.000    30.000   |c| =    30.000000
 CELL_REF| Angle (b,c), alpha [degree]:                                90.000000
 CELL_REF| Angle (a,c), beta  [degree]:                                90.000000
 CELL_REF| Angle (a,b), gamma [degree]:                                90.000000
 CELL_REF| Numerically orthorhombic:                                         YES
 CELL_REF| Periodicity                                                      NONE

 *******************************************************************************
 *******************************************************************************
 **                                                                           **
 **     #####                         ##              ##                      **
 **    ##   ##            ##          ##              ##                      **
 **   ##     ##                       ##            ######                    **
 **   ##     ##  ##   ##  ##   #####  ##  ##   ####   ##    #####    #####    **
 **   ##     ##  ##   ##  ##  ##      ## ##   ##      ##   ##   ##  ##   ##   **
 **   ##  ## ##  ##   ##  ##  ##      ####     ###    ##   ######   ######    **
 **    ##  ###   ##   ##  ##  ##      ## ##      ##   ##   ##       ##        **
 **     #######   #####   ##   #####  ##  ##  ####    ##    #####   ##        **
 **           ##                                                    ##        **
 **                                                                           **
 **                                                ... make the atoms dance   **
 **                                                                           **
 **            Copyright (C) by CP2K developers group (2000-2025)             **
 **                      J. Chem. Phys. 152, 194103 (2020)                    **
 **                                                                           **
 *******************************************************************************

 DFT| Spin restricted Kohn-Sham (RKS) calculation                            RKS
 DFT| Multiplicity                                                             1
 DFT| Number of spin states                                                    1
 DFT| Charge                                                                   0
 DFT| Self-interaction correction (SIC)                                       NO
 DFT| Cutoffs: density                                              1.000000E-10
 DFT|          gradient                                             1.000000E-10
 DFT|          tau                                                  1.000000E-10
 DFT|          cutoff_smoothing_range                               0.000000E+00
 DFT| XC density smoothing                                                  NONE
 DFT| XC derivatives                                                          PW

 FUNCTIONAL| PBE:
 FUNCTIONAL| J.P.Perdew, K.Burke, M.Ernzerhof, Phys. Rev. Letter, vol. 77, n 18,
 FUNCTIONAL|  pp. 3865-3868, (1996)sx=0.750sc=1.000{spin unpolarized}           


 QS| Method:                                                                GAPW
 QS| Density plane wave grid type                        NON-SPHERICAL FULLSPACE
 QS| Number of grid levels:                                                    4
 QS| Density cutoff [a.u.]:                                                250.0
 QS| Multi grid cutoff [a.u.]: 1) grid level                               250.0
 QS|                           2) grid level                                83.3
 QS|                           3) grid level                                27.8
 QS|                           4) grid level                                 9.3
 QS| Grid level progression factor:                                          3.0
 QS| Relative density cutoff [a.u.]:                                        50.0
 QS| Interaction thresholds: eps_pgf_orb:                                1.0E-12
 QS|                         eps_filter_matrix:                          0.0E+00
 QS|                         eps_core_charge:                            1.0E-14
 QS|                         eps_rho_gspace:                             1.0E-12
 QS|                         eps_rho_rspace:                             1.0E-12
 QS|                         eps_gvg_rspace:                             1.0E-06
 QS|                         eps_ppl:                                    1.0E-02
 QS|                         eps_ppnl:                                   1.0E-08
 QS| GAPW|      One center basis from orbital basis primitives
 QS| GAPW|                   eps_fit:                                    1.0E-04
 QS| GAPW|                   eps_iso:                                    1.0E-12
 QS| GAPW|                   eps_svd:                                    1.0E-08
 QS| GAPW|                   eps_cpc:                                    1.0E-12
 QS| GAPW|   atom-r-grid: quadrature:                                     GC_LOG
 QS| GAPW|      atom-s-grid:  max l :                                          2
 QS| GAPW|      max_l_rho0 :                                                   2


 ATOMIC KIND INFORMATION

  1. Atomic kind: O                                     Number of atoms:       2

     Orbital Basis Set                                    aug-SZV-MOLOPT-ae-mini

       Number of orbital shell sets:                                           2
       Number of orbital shells:                                               5
       Number of primitive Cartesian functions:                                7
       Number of Cartesian basis functions:                                    9
       Number of spherical basis functions:                                    9
       Norm type:                                                              2

       Normalised Cartesian orbitals:

                        Set   Shell   Orbital            Exponent    Coefficient

                          1       1    1s                0.162491       0.000000
                                                         0.380388       0.241685
                                                         1.169596       0.320234
                                                         5.033151      -0.239413

                          1       2    2s                0.162491       0.289618
                                                         0.380388      -0.257800
                                                         1.169596      -0.000000
                                                         5.033151      -0.000284

                          1       3    2px               0.162491       0.000000
                                                         0.380388       0.166902
                                                         1.169596       1.053568
                                                         5.033151       1.675450
                          1       3    2py               0.162491       0.000000
                                                         0.380388       0.166902
                                                         1.169596       1.053568
                                                         5.033151       1.675450
                          1       3    2pz               0.162491       0.000000
                                                         0.380388       0.166902
                                                         1.169596       1.053568
                                                         5.033151       1.675450

                          1       4    3px               0.162491       0.166510
                                                         0.380388      -0.081234
                                                         1.169596      -0.994066
                                                         5.033151       0.014231
                          1       4    3py               0.162491       0.166510
                                                         0.380388      -0.081234
                                                         1.169596      -0.994066
                                                         5.033151       0.014231
                          1       4    3pz               0.162491       0.166510
                                                         0.380388      -0.081234
                                                         1.169596      -0.994066
                                                         5.033151       0.014231

                          2       1    1s              130.709321       4.251922
                                                        23.808866       4.112298
                                                         6.443608       1.281622

     RI Auxiliary Basis Set             RI_aug-SZV-MOLOPT-ae-mini_N_RI_028_s_p_d

       Number of orbital shell sets:                                          10
       Number of orbital shells:                                              10
       Number of primitive Cartesian functions:                               10
       Number of Cartesian basis functions:                                   31
       Number of spherical basis functions:                                   28
       Norm type:                                                              2

       Normalised Cartesian orbitals:

                        Set   Shell   Orbital            Exponent    Coefficient

                          1       1    1s                0.357489       0.329502

                          2       1    5px               0.409748       0.467289
                          2       1    5py               0.409748       0.467289
                          2       1    5pz               0.409748       0.467289

                          3       1    8dx2              0.443879       0.397304
                          3       1    8dxy              0.443879       0.688150
                          3       1    8dxz              0.443879       0.688150
                          3       1    8dy2              0.443879       0.397304
                          3       1    8dyz              0.443879       0.688150
                          3       1    8dz2              0.443879       0.397304

                          4       1    2s                1.054753       0.741777

                          5       1    6px               1.767021       2.903971
                          5       1    6py               1.767021       2.903971
                          5       1    6pz               1.767021       2.903971

                          6       1    9dx2              2.138835       6.226152
                          6       1    9dxy              2.138835      10.784012
                          6       1    9dxz              2.138835      10.784012
                          6       1    9dy2              2.138835       6.226152
                          6       1    9dyz              2.138835      10.784012
                          6       1    9dz2              2.138835       6.226152

                          7       1    3s                3.026195       1.635245

                          8       1   10dx2              8.012449      62.805651
                          8       1   10dxy              8.012449     108.782579
                          8       1   10dxz              8.012449     108.782579
                          8       1   10dy2              8.012449      62.805651
                          8       1   10dyz              8.012449     108.782579
                          8       1   10dz2              8.012449      62.805651

                          9       1    4s                8.361610       3.504512

                         10       1    7px               8.422062      20.450934
                         10       1    7py               8.422062      20.450934
                         10       1    7pz               8.422062      20.450934

       Atomic covalent radius [Angstrom]:                                  0.730

       Atomic van der Waals radius [Angstrom]:                             1.520

     The atoms of this atomic kind are PAW atoms (GAPW):
       Hard Gaussian function radius:                                      1.512
       Rho0 radius:                                                        1.512
       Maximum GTO radius used for PAW projector construction:            24.566

     GAPW Soft Basis Set                             aug-SZV-MOLOPT-ae-mini_soft

       Number of orbital shell sets:                                           2
       Number of orbital shells:                                               5
       Number of primitive Cartesian functions:                                3
       Number of Cartesian basis functions:                                    9
       Number of spherical basis functions:                                    9
       Norm type:                                                              2

       Normalised Cartesian orbitals:

                        Set   Shell   Orbital            Exponent    Coefficient

                          1       1    1s                0.162491       0.000000
                                                         0.380388       0.241685
                                                         1.169596       0.320234

                          1       2    2s                0.162491       0.289618
                                                         0.380388      -0.257800
                                                         1.169596      -0.000000

                          1       3    2px               0.162491       0.000000
                                                         0.380388       0.166902
                                                         1.169596       1.053568
                          1       3    2py               0.162491       0.000000
                                                         0.380388       0.166902
                                                         1.169596       1.053568
                          1       3    2pz               0.162491       0.000000
                                                         0.380388       0.166902
                                                         1.169596       1.053568

                          1       4    3px               0.162491       0.166510
                                                         0.380388      -0.081234
                                                         1.169596      -0.994066
                          1       4    3py               0.162491       0.166510
                                                         0.380388      -0.081234
                                                         1.169596      -0.994066
                          1       4    3pz               0.162491       0.166510
                                                         0.380388      -0.081234
                                                         1.169596      -0.994066

                          2       1    1s         

     AE Potential information for                                            ALL

       Description:                                       All-electron potential
                                          Krack, Parrinello, PCCP 2, 2105 (2000)

       Gaussian exponent of the core charge distribution:               8.154466
       Electronic configuration (s p d ...):                           4   4   0

  2. Atomic kind: N                                     Number of atoms:       1

     Orbital Basis Set                                    aug-SZV-MOLOPT-ae-mini

       Number of orbital shell sets:                                           2
       Number of orbital shells:                                               5
       Number of primitive Cartesian functions:                                7
       Number of Cartesian basis functions:                                    9
       Number of spherical basis functions:                                    9
       Norm type:                                                              2

       Normalised Cartesian orbitals:

                        Set   Shell   Orbital            Exponent    Coefficient

                          1       1    1s                0.112012       0.000000
                                                         0.285714       0.194997
                                                         0.878496       0.258372
                                                         3.780455      -0.193164

                          1       2    2s                0.112012      -0.247059
                                                         0.285714       0.355178
                                                         0.878496       0.105643
                                                         3.780455      -0.000189

                          1       3    2px               0.112012       0.000000
                                                         0.285714       0.116706
                                                         0.878496       0.736703
                                                         3.780455       1.171552
                          1       3    2py               0.112012       0.000000
                                                         0.285714       0.116706
                                                         0.878496       0.736703
                                                         3.780455       1.171552
                          1       3    2pz               0.112012       0.000000
                                                         0.285714       0.116706
                                                         0.878496       0.736703
                                                         3.780455       1.171552

                          1       4    3px               0.112012       0.096580
                                                         0.285714      -0.017996
                                                         0.878496       0.000162
                                                         3.780455       0.000013
                          1       4    3py               0.112012       0.096580
                                                         0.285714      -0.017996
                                                         0.878496       0.000162
                                                         3.780455       0.000013
                          1       4    3pz               0.112012       0.096580
                                                         0.285714      -0.017996
                                                         0.878496       0.000162
                                                         3.780455       0.000013

                          2       1    1s               99.106168       3.454863
                                                        18.052312       3.341413
                                                         4.885660       1.041372

     RI Auxiliary Basis Set             RI_aug-SZV-MOLOPT-ae-mini_N_RI_023_s_p_d

       Number of orbital shell sets:                                           9
       Number of orbital shells:                                               9
       Number of primitive Cartesian functions:                                9
       Number of Cartesian basis functions:                                   25
       Number of spherical basis functions:                                   23
       Norm type:                                                              2

       Normalised Cartesian orbitals:

                        Set   Shell   Orbital            Exponent    Coefficient

                          1       1    8dx2              0.247473       0.142917
                          1       1    8dxy              0.247473       0.247539
                          1       1    8dxz              0.247473       0.247539
                          1       1    8dy2              0.247473       0.142917
                          1       1    8dyz              0.247473       0.247539
                          1       1    8dz2              0.247473       0.142917

                          2       1    1s                0.269982       0.266939

                          3       1    5px               0.290292       0.303728
                          3       1    5py               0.290292       0.303728
                          3       1    5pz               0.290292       0.303728

                          4       1    2s                0.773829       0.588023

                          5       1    6px               1.337055       2.049400
                          5       1    6py               1.337055       2.049400
                          5       1    6pz               1.337055       2.049400

                          6       1    3s                2.228530       1.299942

                          7       1    9dx2              2.368474       7.442682
                          7       1    9dxy              2.368474      12.891104
                          7       1    9dxz              2.368474      12.891104
                          7       1    9dy2              2.368474       7.442682
                          7       1    9dyz              2.368474      12.891104
                          7       1    9dz2              2.368474       7.442682

                          8       1    7px               6.206242      13.962911
                          8       1    7py               6.206242      13.962911
                          8       1    7pz               6.206242      13.962911

                          9       1    4s                6.295867       2.832707

       Atomic covalent radius [Angstrom]:                                  0.750

       Atomic van der Waals radius [Angstrom]:                             1.550

     The atoms of this atomic kind are PAW atoms (GAPW):
       Hard Gaussian function radius:                                      1.512
       Rho0 radius:                                                        1.512
       Maximum GTO radius used for PAW projector construction:            24.566

     GAPW Soft Basis Set                             aug-SZV-MOLOPT-ae-mini_soft

       Number of orbital shell sets:                                           2
       Number of orbital shells:                                               5
       Number of primitive Cartesian functions:                                4
       Number of Cartesian basis functions:                                    9
       Number of spherical basis functions:                                    9
       Norm type:                                                              2

       Normalised Cartesian orbitals:

                        Set   Shell   Orbital            Exponent    Coefficient

                          1       1    1s                0.112012       0.000000
                                                         0.285714       0.194997
                                                         0.878496       0.258372
                                                         3.780455      -0.193164

                          1       2    2s                0.112012      -0.247059
                                                         0.285714       0.355178
                                                         0.878496       0.105643
                                                         3.780455      -0.000189

                          1       3    2px               0.112012       0.000000
                                                         0.285714       0.116706
                                                         0.878496       0.736703
                                                         3.780455       1.171552
                          1       3    2py               0.112012       0.000000
                                                         0.285714       0.116706
                                                         0.878496       0.736703
                                                         3.780455       1.171552
                          1       3    2pz               0.112012       0.000000
                                                         0.285714       0.116706
                                                         0.878496       0.736703
                                                         3.780455       1.171552

                          1       4    3px               0.112012       0.096580
                                                         0.285714      -0.017996
                                                         0.878496       0.000162
                                                         3.780455       0.000013
                          1       4    3py               0.112012       0.096580
                                                         0.285714      -0.017996
                                                         0.878496       0.000162
                                                         3.780455       0.000013
                          1       4    3pz               0.112012       0.096580
                                                         0.285714      -0.017996
                                                         0.878496       0.000162
                                                         3.780455       0.000013

                          2       1    1s         

     AE Potential information for                                            ALL

       Description:                                       All-electron potential
                                          Krack, Parrinello, PCCP 2, 2105 (2000)

       Gaussian exponent of the core charge distribution:               5.979100
       Electronic configuration (s p d ...):                           4   3   0

  3. Atomic kind: H                                     Number of atoms:       1

     Orbital Basis Set                                    aug-SZV-MOLOPT-ae-mini

       Number of orbital shell sets:                                           1
       Number of orbital shells:                                               4
       Number of primitive Cartesian functions:                                7
       Number of Cartesian basis functions:                                    6
       Number of spherical basis functions:                                    6
       Norm type:                                                              2

       Normalised Cartesian orbitals:

                        Set   Shell   Orbital            Exponent    Coefficient

                          1       1    1s                0.065428       0.000000
                                                         0.100112       0.016532
                                                         0.243077       0.102760
                                                         0.625955       0.185857
                                                         1.822143       0.188385
                                                         6.513144       0.143430
                                                        35.523221       0.095030

                          1       2    2s                0.065428       0.083549
                                                         0.100112       0.009605
                                                         0.243077       0.002524
                                                         0.625955       0.013457
                                                         1.822143       0.000000
                                                         6.513144       0.000000
                                                        35.523221       0.000000

                          1       3    3s                0.065428       0.037407
                                                         0.100112      -0.169070
                                                         0.243077      -0.018899
                                                         0.625955       0.012806
                                                         1.822143       0.000000
                                                         6.513144       0.000000
                                                        35.523221       0.000000

                          1       4    2px               0.065428       0.059908
                                                         0.100112      -0.023770
                                                         0.243077       0.000032
                                                         0.625955       0.017779
                                                         1.822143       0.000000
                                                         6.513144       0.000000
                                                        35.523221       0.000000
                          1       4    2py               0.065428       0.059908
                                                         0.100112      -0.023770
                                                         0.243077       0.000032
                                                         0.625955       0.017779
                                                         1.822143       0.000000
                                                         6.513144       0.000000
                                                        35.523221       0.000000
                          1       4    2pz               0.065428       0.059908
                                                         0.100112      -0.023770
                                                         0.243077       0.000032
                                                         0.625955       0.017779
                                                         1.822143       0.000000
                                                         6.513144       0.000000
                                                        35.523221       0.000000

     RI Auxiliary Basis Set             RI_aug-SZV-MOLOPT-ae_N_RI_007_s_p_d_f_g_

       Number of orbital shell sets:                                           5
       Number of orbital shells:                                               5
       Number of primitive Cartesian functions:                                5
       Number of Cartesian basis functions:                                    7
       Number of spherical basis functions:                                    7
       Norm type:                                                              2

       Normalised Cartesian orbitals:

                        Set   Shell   Orbital            Exponent    Coefficient

                          1       1    1s                0.148777       0.170731

                          2       1    5px               0.367452       0.407794
                          2       1    5py               0.367452       0.407794
                          2       1    5pz               0.367452       0.407794

                          3       1    2s                0.510503       0.430437

                          4       1    3s                1.106366       0.768837

                          5       1    4s                5.955292       2.716986

       Atomic covalent radius [Angstrom]:                                  0.320

       Atomic van der Waals radius [Angstrom]:                             1.090

     The atoms of this atomic kind are PAW atoms (GAPW):
       Hard Gaussian function radius:                                      1.200
       Rho0 radius:                                                        1.200
       Maximum GTO radius used for PAW projector construction:            24.566

     GAPW Soft Basis Set                             aug-SZV-MOLOPT-ae-mini_soft

       Number of orbital shell sets:                                           1
       Number of orbital shells:                                               4
       Number of primitive Cartesian functions:                                6
       Number of Cartesian basis functions:                                    6
       Number of spherical basis functions:                                    6
       Norm type:                                                              2

       Normalised Cartesian orbitals:

                        Set   Shell   Orbital            Exponent    Coefficient

                          1       1    1s                0.065428       0.000000
                                                         0.100112       0.016532
                                                         0.243077       0.102760
                                                         0.625955       0.185857
                                                         1.822143       0.188385
                                                         6.513144       0.000000

                          1       2    2s                0.065428       0.083549
                                                         0.100112       0.009605
                                                         0.243077       0.002524
                                                         0.625955       0.013457
                                                         1.822143       0.000000
                                                         6.513144       0.000000

                          1       3    3s                0.065428       0.037407
                                                         0.100112      -0.169070
                                                         0.243077      -0.018899
                                                         0.625955       0.012806
                                                         1.822143       0.000000
                                                         6.513144       0.000000

                          1       4    2px               0.065428       0.059908
                                                         0.100112      -0.023770
                                                         0.243077       0.000032
                                                         0.625955       0.017779
                                                         1.822143       0.000000
                                                         6.513144       0.000000
                          1       4    2py               0.065428       0.059908
                                                         0.100112      -0.023770
                                                         0.243077       0.000032
                                                         0.625955       0.017779
                                                         1.822143       0.000000
                                                         6.513144       0.000000
                          1       4    2pz               0.065428       0.059908
                                                         0.100112      -0.023770
                                                         0.243077       0.000032
                                                         0.625955       0.017779
                                                         1.822143       0.000000
                                                         6.513144       0.000000

     AE Potential information for                                            ALL

       Description:                                       All-electron potential
                                          Krack, Parrinello, PCCP 2, 2105 (2000)

       Gaussian exponent of the core charge distribution:              12.500000
       Electronic configuration (s p d ...):                           1   0   0


 MOLECULE KIND INFORMATION


 All atoms are their own molecule, skipping detailed information


 TOTAL NUMBERS AND MAXIMUM NUMBERS

  Total number of            - Atomic kinds:                                   3
                             - Atoms:                                          4
                             - Shell sets:                                     7
                             - Shells:                                        19
                             - Primitive Cartesian functions:                 28
                             - Cartesian basis functions:                     33
                             - Spherical basis functions:                     33

  Maximum angular momentum of the orbital basis functions:                     1


 MODULE QUICKSTEP: ATOMIC COORDINATES IN ANGSTROM

   Atom Kind Element         X             Y             Z       Z(eff)     Mass
      1    1 O     8     16.394490     15.367373     15.000000   8.0000  15.9994
      2    2 N     7     15.482516     14.632627     15.000000   7.0000  14.0067
      3    1 O     8     14.256929     15.353126     15.000000   8.0000  15.9994
      4    3 H     1     13.605510     14.640964     15.000000   1.0000   1.0079



 SCF PARAMETERS         Density guess:                                   RESTART
                        --------------------------------------------------------
                        max_scf:                                             500
                        max_scf_history:                                       0
                        max_diis:                                              4
                        --------------------------------------------------------
                        eps_scf:                                        1.00E-06
                        eps_scf_history:                                0.00E+00
                        eps_diis:                                       0.00E+00
                        eps_eigval:                                     1.00E-05
                        --------------------------------------------------------
                        level_shift [a.u.]:                             0.000000
                        --------------------------------------------------------
                        Outer loop SCF in use 
                        No variables optimised in outer loop
                        eps_scf                                         1.00E-06
                        max_scf                                               20
                        No outer loop optimization
                        step_size                                       5.00E-01

 PW_GRID| Information for grid number                                          1
 PW_GRID| Grid distributed over                                    16 processors
 PW_GRID| Real space group dimensions                                    16    1
 PW_GRID| the grid is blocked:                                                NO
 PW_GRID| Cutoff [a.u.]                                                    250.0
 PW_GRID| spherical cutoff:                                                   NO
 PW_GRID|   Bounds   1           -202     202                Points:         405
 PW_GRID|   Bounds   2           -202     202                Points:         405
 PW_GRID|   Bounds   3           -202     202                Points:         405
 PW_GRID| Volume element (a.u.^3)  0.2743E-02     Volume (a.u.^3)    182205.0337
 PW_GRID| Grid span                                                    FULLSPACE
 PW_GRID|   Distribution                         Average         Max         Min
 PW_GRID|   G-Vectors                          4151882.8     4152060     4151655
 PW_GRID|   G-Rays                               10251.6       10252       10251
 PW_GRID|   Real Space Points                  4151882.8     4264650     4100625

 PW_GRID| Information for grid number                                          2
 PW_GRID| Number of the reference grid                                         1
 PW_GRID| Grid distributed over                                    16 processors
 PW_GRID| Real space group dimensions                                    16    1
 PW_GRID| the grid is blocked:                                                NO
 PW_GRID| Cutoff [a.u.]                                                     83.3
 PW_GRID| spherical cutoff:                                                   NO
 PW_GRID|   Bounds   1           -120     119                Points:         240
 PW_GRID|   Bounds   2           -120     119                Points:         240
 PW_GRID|   Bounds   3           -120     119                Points:         240
 PW_GRID| Volume element (a.u.^3)  0.1318E-01     Volume (a.u.^3)    182205.0337
 PW_GRID| Grid span                                                    FULLSPACE
 PW_GRID|   Distribution                         Average         Max         Min
 PW_GRID|   G-Vectors                           864000.0      864720      863520
 PW_GRID|   G-Rays                                3600.0        3603        3598
 PW_GRID|   Real Space Points                   864000.0      864000      864000

 PW_GRID| Information for grid number                                          3
 PW_GRID| Number of the reference grid                                         1
 PW_GRID| Grid distributed over                                    16 processors
 PW_GRID| Real space group dimensions                                    16    1
 PW_GRID| the grid is blocked:                                                NO
 PW_GRID| Cutoff [a.u.]                                                     27.8
 PW_GRID| spherical cutoff:                                                   NO
 PW_GRID|   Bounds   1            -67      67                Points:         135
 PW_GRID|   Bounds   2            -67      67                Points:         135
 PW_GRID|   Bounds   3            -67      67                Points:         135
 PW_GRID| Volume element (a.u.^3)  0.7406E-01     Volume (a.u.^3)    182205.0337
 PW_GRID| Grid span                                                    FULLSPACE
 PW_GRID|   Distribution                         Average         Max         Min
 PW_GRID|   G-Vectors                           153773.4      154170      153630
 PW_GRID|   G-Rays                                1139.1        1142        1138
 PW_GRID|   Real Space Points                   153773.4      164025      145800

 PW_GRID| Information for grid number                                          4
 PW_GRID| Number of the reference grid                                         1
 PW_GRID| Grid distributed over                                    16 processors
 PW_GRID| Real space group dimensions                                    16    1
 PW_GRID| the grid is blocked:                                                NO
 PW_GRID| Cutoff [a.u.]                                                      9.3
 PW_GRID| spherical cutoff:                                                   NO
 PW_GRID|   Bounds   1            -40      39                Points:          80
 PW_GRID|   Bounds   2            -40      39                Points:          80
 PW_GRID|   Bounds   3            -40      39                Points:          80
 PW_GRID| Volume element (a.u.^3)  0.3559         Volume (a.u.^3)    182205.0337
 PW_GRID| Grid span                                                    FULLSPACE
 PW_GRID|   Distribution                         Average         Max         Min
 PW_GRID|   G-Vectors                            32000.0       32240       31840
 PW_GRID|   G-Rays                                 400.0         403         398
 PW_GRID|   Real Space Points                    32000.0       32000       32000

 POISSON| Solver                                                         WAVELET
 POISSON| Wavelet| Scaling function                                           40
 POISSON| Periodicity                                                       NONE

 RS_GRID| Information for grid number                                          1
 RS_GRID|   Bounds   1           -202     202                Points:         405
 RS_GRID|   Bounds   2           -202     202                Points:         405
 RS_GRID|   Bounds   3           -202     202                Points:         405
 RS_GRID| Real space distribution over                                  4 groups
 RS_GRID| Real space distribution along direction                              2
 RS_GRID| Border size                                                         33
 RS_GRID| Real space distribution over                                  4 groups
 RS_GRID| Real space distribution along direction                              3
 RS_GRID| Border size                                                         33
 RS_GRID|   Distribution                         Average         Max         Min
 RS_GRID|   Planes                                 167.2         168         167
 RS_GRID|   Distribution                         Average         Max         Min
 RS_GRID|   Planes                                 167.2         168         167

 RS_GRID| Information for grid number                                          2
 RS_GRID|   Bounds   1           -120     119                Points:         240
 RS_GRID|   Bounds   2           -120     119                Points:         240
 RS_GRID|   Bounds   3           -120     119                Points:         240
 RS_GRID| Real space distribution over                                  4 groups
 RS_GRID| Real space distribution along direction                              2
 RS_GRID| Border size                                                         35
 RS_GRID| Real space distribution over                                  4 groups
 RS_GRID| Real space distribution along direction                              3
 RS_GRID| Border size                                                         35
 RS_GRID|   Distribution                         Average         Max         Min
 RS_GRID|   Planes                                 130.0         130         130
 RS_GRID|   Distribution                         Average         Max         Min
 RS_GRID|   Planes                                 130.0         130         130

 RS_GRID| Information for grid number                                          3
 RS_GRID|   Bounds   1            -67      67                Points:         135
 RS_GRID|   Bounds   2            -67      67                Points:         135
 RS_GRID|   Bounds   3            -67      67                Points:         135
 RS_GRID| Real space fully replicated
 RS_GRID| Group size                                                           1

 RS_GRID| Information for grid number                                          4
 RS_GRID|   Bounds   1            -40      39                Points:          80
 RS_GRID|   Bounds   2            -40      39                Points:          80
 RS_GRID|   Bounds   3            -40      39                Points:          80
 RS_GRID| Real space fully replicated
 RS_GRID| Group size                                                           1

  HFX_INFO| Replica ID:                                                        1
  HFX_INFO| FRACTION:                                               0.2500000000
  HFX_INFO| Interaction Potential:                                       COULOMB
  HFX_INFO| EPS_SCHWARZ:                                                 1.0E-10
  HFX_INFO| EPS_SCHWARZ_FORCES                                           1.0E-08
  HFX_INFO| EPS_STORAGE_SCALING:                                         1.0E+00
  HFX_INFO| NBINS:                                                            64
  HFX_INFO| BLOCK_SIZE:                                                        1
  HFX_INFO| Number of periodic shells considered:                           NONE
  HFX_INFO| Number of periodic cells considered:                            NONE


 OVERLAP MATRIX CONDITION NUMBER
 1-Norm Condition Number (Estimate)
   CN : |A|*|A^-1|:  7.681E+000 *  3.102E+002   = 2.383E+003  Log(1-CN):  3.3771
 1-Norm and 2-Norm Condition Numbers using Diagonalization
   CN : |A|*|A^-1|:  7.681E+000 *  3.102E+002   = 2.383E+003  Log(1-CN):  3.3771
   CN : max/min ev:  4.962E+000 /  5.954E-003   = 8.333E+002  Log(2-CN):  2.9208

 Number of electrons:                                                         24
 Number of occupied orbitals:                                                 12
 Number of molecular orbitals:                                                12

 Number of orbital functions:                                                 33
 Number of independent orbital functions:                                     33

 Extrapolation method: initial_guess


 SCF WAVEFUNCTION OPTIMIZATION

  ----------------------------------- OT ---------------------------------------
  Minimizer      : CG                  : conjugate gradient
  Preconditioner : FULL_SINGLE_INVERSE : inversion of 
                                         H + eS - 2*(Sc)(c^T*H*c+const)(Sc)^T
  Precond_solver : DEFAULT
  Line search    : 3PNT                : 3 energies
  stepsize       :    0.08000000                  energy_gap     :    0.08000000
  eps_taylor     :   0.10000E-15                  max_taylor     :             4
  ----------------------------------- OT ---------------------------------------

  Step     Update method      Time    Convergence         Total energy    Change
  ------------------------------------------------------------------------------

  HFX_MEM_INFO| Est. max. program size before HFX [MiB]:                    2327
  HFX_MEM_INFO| Number of cart. primitive ERI's calculated:             10155235
  HFX_MEM_INFO| Number of sph. ERI's calculated:                          257867
  HFX_MEM_INFO| Number of sph. ERI's stored in-core:                      257867
  HFX_MEM_INFO| Number of sph. ERI's stored on disk:                           0
  HFX_MEM_INFO| Number of sph. ERI's calculated on the fly:                    0
  HFX_MEM_INFO| Total memory consumption ERI's RAM [MiB]:                      2
  HFX_MEM_INFO| Whereof max-vals [MiB]:                                        1
  HFX_MEM_INFO| Total compression factor ERI's RAM:                         1.77
  HFX_MEM_INFO| Total memory consumption ERI's disk [MiB]:                     0
  HFX_MEM_INFO| Total compression factor ERI's disk:                        0.00
  HFX_MEM_INFO| Size of density/Fock matrix [MiB]:                             0
  HFX_MEM_INFO| Size of buffers [MiB]:                                         0
  HFX_MEM_INFO| Est. max. program size after HFX  [MiB]:                    2863

     1 OT CG       0.64E-01    4.1     0.00000364      -203.0051674337 -2.03E+02
     - OT LS       0.32E-01    2.2                     -203.0051674332
     - OT LS       0.12E-01    2.2                     -203.0051674337
     2 OT CG       0.97E-02    3.0     0.00000362      -203.0051674338 -3.17E-11
     - OT LS       0.14E-01    2.2                     -203.0051674338
     - OT LS       0.28E-01    2.2                     -203.0051674338
     3 OT CG       0.22E-01    3.0     0.00000571      -203.0051674338 -7.25E-11
     - OT LS       0.31E-01    2.1                     -203.0051674339
     - OT LS       0.13E-01    2.1                     -203.0051674337
     4 OT CG       0.10E-01    3.0     0.00000437      -203.0051674339 -8.41E-11
     - OT LS       0.14E-01    2.1                     -203.0051674340
     - OT LS       0.11E-01    2.1                     -203.0051674339
     5 OT CG       0.89E-02    3.0     0.00000223      -203.0051674340 -4.21E-11
     - OT LS       0.12E-01    2.2                     -203.0051674340
     - OT LS       0.14E-01    2.2                     -203.0051674340
     6 OT CG       0.12E-01    3.0     0.00000166      -203.0051674340 -1.40E-11
     - OT LS       0.16E-01    2.2                     -203.0051674340
     - OT LS       0.26E-01    2.1                     -203.0051674340
     7 OT CG       0.21E-01    3.0     0.00000178      -203.0051674340 -1.42E-11
     - OT LS       0.29E-01    2.2                     -203.0051674340
     - OT LS       0.19E-01    2.2                     -203.0051674340
     8 OT CG       0.15E-01    3.0     0.00000119      -203.0051674340 -1.19E-11
     - OT LS       0.21E-01    2.2                     -203.0051674340
     - OT LS       0.13E-01    2.2                     -203.0051674340
     9 OT CG       0.10E-01    3.0     0.00000078      -203.0051674340 -3.64E-12

  *** SCF run converged in     9 steps ***


  Electronic density on regular grids:        -17.5262662867        6.4737337133
  Core density on regular grids:               24.0000000000        0.0000000000
  Hard and soft densities (Lebedev):          -52.2811358413      -45.8074012562
  Total Rho_soft + Rho1_hard - Rho1_soft      -24.0000008718
  Total charge density (r-space):              -0.0000008718
  Total Rho_soft + Rho0_soft (g-space):        -0.0000009408

  Overlap energy of the core charge distribution:               0.00000019924393
  Self energy of the core charge distribution:               -195.03029115779105
  Core Hamiltonian energy:                                    -20.43550603944465
  Hartree energy:                                              58.54153234005592
  Exchange-correlation energy:                                 -6.99496324849644
  Hartree-Fock Exchange energy:                                -5.74400072502972

  GAPW| Exc from hard and soft atomic rho1:                   -11.02781778961411
  GAPW| local Eh = 1 center integrals:                        -22.31412101292128

  Total energy:                                              -203.00516743399740

  outer SCF iter =    1 RMS gradient =   0.78E-06 energy =       -203.0051674340
  outer SCF loop converged in   1 iterations or   25 steps


 !-----------------------------------------------------------------------------!
                     Mulliken Population Analysis

 #  Atom  Element  Kind  Atomic population                           Net charge
       1     O        1          7.922135                              0.077865
       2     N        2          7.033158                             -0.033158
       3     O        1          8.366014                             -0.366014
       4     H        3          0.678694                              0.321306
 # Total charge                             24.000000                 -0.000000

 !-----------------------------------------------------------------------------!

 !-----------------------------------------------------------------------------!
                           Hirshfeld Charges

  #Atom  Element  Kind  Ref Charge     Population                    Net charge
      1       O      1       8.000          8.208                        -0.208
      2       N      2       7.000          6.763                         0.237
      3       O      1       8.000          8.632                        -0.632
      4       H      3       1.000          0.394                         0.606

  Total Charge                                                            0.004
 !-----------------------------------------------------------------------------!

 *******************************************************************************
 **                                                                           **
 **         ######## #######   #######   ######## #######  ########           **
 **            ##    ##     ## ##     ## ##       ##   ##     ##              **
 **            ##    ##     ## ##     ## ######   #######     ##              **
 **            ##    ##     ## ##     ## ##       ##          ##              **
 **            ##    #######   #######   ##       ##          ##              **
 **                                                                           **
 *******************************************************************************
 KERNEL|                                                                    FULL
 FUNCTIONAL| PBE:
 FUNCTIONAL| J.P.Perdew, K.Burke, M.Ernzerhof, Phys. Rev. Letter, vol. 77, n 18,
 FUNCTIONAL|  pp. 3865-3868, (1996)sx=0.750sc=1.000{spin unpolarized}           
 KERNEL|                                                          Exact Exchange
 KERNEL| Spin symmetry of excitations                                    Singlet
 TDDFPT| Number of states calculated                                          20
 TDDFPT| Number of Davidson iterations                                       100
 TDDFPT| Davidson iteration convergence                                0.367E-07
 TDDFPT| Max. number of Krylov space vectors                                5000
 TDDFPT| Molecular Orbitals:        Spin       AOs       Occ      Virt     Total
 TDDFPT|                               1        33        12        21        33
 
 -------------------------------------------------------------------------------
 -                            TDDFPT Initial Guess                             -
 -------------------------------------------------------------------------------
          State         Occupied      ->      Virtual          Excitation
          number         orbital              orbital          energy (eV)
 -------------------------------------------------------------------------------
             1               12                   13              5.65323
             2               11                   13              7.63439
             3               12                   14              8.84153
             4               10                   13              9.32081
             5               12                   15             10.53252
             6               11                   14             10.82269
             7               12                   16             11.21270
             8                9                   13             11.60642
             9               12                   17             12.01327
            10                8                   13             12.10210
            11               12                   18             12.13120
            12               10                   14             12.50911
            13               11                   15             12.51368
            14               11                   16             13.19386
            15                7                   13             13.60883
            16               12                   19             13.95070
            17               11                   17             13.99443
            18               11                   18             14.11236
            19               10                   15             14.20010
            20                9                   14             14.79472

      Number of active states:                                        252
 -------------------------------------------------------------------------------
 
 -------------------------------------------------------------------------------
 -                      TDDFPT WAVEFUNCTION OPTIMIZATION                       -
 -------------------------------------------------------------------------------

          Step            Time         Convergence           Conv. states
 -------------------------------------------------------------------------------

    State    Exc. energy (eV)      Convergence (eV)
        1       3.4448106            -2.2084E+00
        2       6.8341704            -8.0022E-01
        3       7.0059364            -1.8356E+00
        4       7.8135262            -1.5073E+00
        5       9.2453944            -1.2871E+00
        6       9.5560559            -1.2666E+00
        7       9.9412359            -1.2715E+00
        8       9.9907769            -1.6156E+00
        9      10.4158081            -1.5975E+00
       10      10.7550408            -1.3471E+00
       11      11.1181123            -1.0131E+00
       12      11.6656406            -8.4347E-01
       13      11.7931768            -7.2050E-01
       14      12.2484842            -9.4538E-01
       15      12.3419553            -1.2669E+00
       16      12.5358820            -1.4148E+00
       17      12.5908302            -1.4036E+00
       18      13.4295219            -6.8284E-01
       19      14.5643254             3.6422E-01
       20      17.2063478             2.4116E+00

             1            60.1          8.8626E-02                      0

    State    Exc. energy (eV)      Convergence (eV)
        1       3.4050567            -3.9754E-02
        2       6.6840030            -1.5017E-01
        3       6.9798827            -2.6054E-02
        4       7.7413338            -7.2192E-02
        5       9.1878829            -5.7512E-02
        6       9.4841232            -7.1933E-02
        7       9.6867170            -2.5452E-01
        8       9.9703979            -2.0379E-02
        9      10.3577879            -5.8020E-02
       10      10.7001305            -5.4910E-02
       11      10.9673778            -1.5073E-01
       12      11.4601347            -2.0551E-01
       13      11.4882237            -3.0495E-01
       14      11.8589889            -3.8950E-01
       15      12.2488739            -9.3081E-02
       16      12.3103609            -2.2552E-01
       17      12.4933200            -9.7510E-02
       18      12.5556244            -8.7390E-01
       19      13.3006039            -1.2637E+00
       20      13.7018134            -3.5045E+00

             2            59.3          1.2879E-01                      0

    State    Exc. energy (eV)      Convergence (eV)
        1       3.4049903            -6.6395E-05
        2       6.6828479            -1.1551E-03
        3       6.9798018            -8.0912E-05
        4       7.7405569            -7.7695E-04
        5       9.1877080            -1.7488E-04
        6       9.4839290            -1.9418E-04
        7       9.6835340            -3.1830E-03
        8       9.9702380            -1.5988E-04
        9      10.3572746            -5.1322E-04
       10      10.6993232            -8.0728E-04
       11      10.9648004            -2.5774E-03
       12      11.4575060            -2.6288E-03
       13      11.4784151            -9.8085E-03
       14      11.8407440            -1.8245E-02
       15      12.2236651            -2.5209E-02
       16      12.3100812            -2.7974E-04
       17      12.4928374            -4.8259E-04
       18      12.5546570            -9.6745E-04
       19      13.1136603            -1.8694E-01
       20      13.4992593            -2.0255E-01

             3            59.1          7.4437E-03                      0

    State    Exc. energy (eV)      Convergence (eV)
        1       3.4049903            -5.1150E-08
        2       6.6828451            -2.7304E-06
        3       6.9798016            -1.4968E-07
        4       7.7405546            -2.2895E-06
        5       9.1877077            -3.4280E-07
        6       9.4839280            -1.0637E-06
        7       9.6835172            -1.6747E-05
        8       9.9702377            -2.8256E-07
        9      10.3572718            -2.8861E-06
       10      10.6993164            -6.7851E-06
       11      10.9647720            -2.8384E-05
       12      11.4574906            -1.5343E-05
       13      11.4782060            -2.0909E-04
       14      11.8404472            -2.9685E-04
       15      12.2230149            -6.5021E-04
       16      12.3100733            -7.8632E-06
       17      12.4928281            -9.3449E-06
       18      12.5546215            -3.5496E-05
       19      13.0953427            -1.8318E-02
       20      13.4784328            -2.0827E-02

             4            59.9          7.6536E-04                      4

    State    Exc. energy (eV)      Convergence (eV)
        1       3.4049903            -3.2983E-11
        2       6.6828451            -3.8796E-09
        3       6.9798016            -2.3383E-10
        4       7.7405546            -3.8477E-09
        5       9.1877077            -1.1094E-09
        6       9.4839280            -3.7291E-09
        7       9.6835172            -3.6670E-08
        8       9.9702377            -3.3206E-10
        9      10.3572717            -7.3776E-09
       10      10.6993164            -1.9541E-08
       11      10.9647719            -1.0091E-07
       12      11.4574905            -8.9095E-08
       13      11.4782052            -8.6983E-07
       14      11.8404459            -1.3072E-06
       15      12.2230109            -3.9768E-06
       16      12.3100733            -4.3228E-08
       17      12.4928280            -1.1088E-07
       18      12.5546212            -2.3787E-07
       19      13.0952001            -1.4260E-04
       20      13.4780978            -3.3494E-04

             5            59.8          1.2309E-05                     16

    State    Exc. energy (eV)      Convergence (eV)
        1       3.4049903            -3.7008E-14
        2       6.6828451            -3.7416E-12
        3       6.9798016            -1.9637E-13
        4       7.7405546            -4.7975E-12
        5       9.1877077            -1.3232E-12
        6       9.4839280            -4.4440E-12
        7       9.6835172            -6.6470E-11
        8       9.9702377            -5.2718E-13
        9      10.3572717            -9.5390E-12
       10      10.6993164            -4.8399E-11
       11      10.9647719            -1.8252E-10
       12      11.4574905            -1.2309E-10
       13      11.4782052            -1.9993E-09
       14      11.8404459            -3.8918E-09
       15      12.2230109            -1.0075E-08
       16      12.3100733            -9.3643E-11
       17      12.4928280            -3.7244E-10
       18      12.5546212            -1.0858E-09
       19      13.0951994            -6.8140E-07
       20      13.4780959            -1.8987E-06

             6            59.7          6.9777E-08                     19

    State    Exc. energy (eV)      Convergence (eV)
        1       3.4049903             4.5316E-15
        2       6.6828451            -1.2840E-14
        3       6.9798016             2.1147E-14
        4       7.7405546             1.5105E-15
        5       9.1877077             1.0574E-13
        6       9.4839280             7.2506E-14
        7       9.6835172            -9.8185E-14
        8       9.9702377             8.7611E-14
        9      10.3572717             1.0272E-13
       10      10.6993164            -5.5890E-14
       11      10.9647719            -2.0694E-13
       12      11.4574905            -8.7611E-14
       13      11.4782052            -3.4652E-12
       14      11.8404459            -8.1539E-12
       15      12.2230109            -1.8040E-11
       16      12.3100733             3.0211E-15
       17      12.4928280            -4.3050E-13
       18      12.5546212            -2.7371E-12
       19      13.0951994            -2.5849E-09
       20      13.4780959            -8.4039E-09

             7            59.3          3.0884E-10                     20
 
 -------------------------------------------------------------------------------
 -  TDDFPT run converged in 7 iteration(s) 
 -------------------------------------------------------------------------------

 R-TDDFPT states of multiplicity 1
 Transition dipoles calculated using velocity formulation

         State    Excitation        Transition dipole (a.u.)        Oscillator
         number   energy (eV)       x           y           z     strength (a.u.)
         ------------------------------------------------------------------------
 TDDFPT|      1       3.40499  -4.6270E-08 -1.0116E-07  3.2123E-01   8.60801E-03
 TDDFPT|      2       6.68285  -8.5236E-02 -1.2230E-01 -5.9470E-08   3.63823E-03
 TDDFPT|      3       6.97980  -1.1583E-07 -1.9579E-07  7.1948E-03   8.85204E-06
 TDDFPT|      4       7.74055   3.2059E-01  5.8117E-02 -1.4650E-07   2.01313E-02
 TDDFPT|      5       9.18771  -3.4401E-07  7.6425E-08  2.8870E-01   1.87613E-02
 TDDFPT|      6       9.48393   2.4298E-06 -1.9752E-06 -9.4145E-04   2.05944E-07
 TDDFPT|      7       9.68352   6.1856E-01 -4.7422E-01  4.2211E-07   1.44125E-01
 TDDFPT|      8       9.97024   1.3460E-06 -1.3423E-06 -2.3100E-01   1.30339E-02
 TDDFPT|      9      10.35727   3.1977E-09 -3.1659E-09  4.8531E-02   5.97633E-04
 TDDFPT|     10      10.69932  -6.0155E-02  3.2360E-01 -4.8528E-07   2.83987E-02
 TDDFPT|     11      10.96477   2.0713E-01  1.4364E-01 -6.5128E-07   1.70674E-02
 TDDFPT|     12      11.45749   3.7211E-06  1.7214E-07  3.5990E-01   3.63586E-02
 TDDFPT|     13      11.47821  -4.1614E-01  1.6244E-01  1.8615E-06   5.61179E-02
 TDDFPT|     14      11.84045   5.6677E-01  8.0867E-02 -7.1014E-07   9.50802E-02
 TDDFPT|     15      12.22301  -1.9438E-02 -2.0742E-01  6.6609E-07   1.29965E-02
 TDDFPT|     16      12.31007  -3.3743E-08 -4.1090E-07 -1.5859E-01   7.58500E-03
 TDDFPT|     17      12.49283  -4.8455E-07 -2.6605E-07 -1.7361E-01   9.22470E-03
 TDDFPT|     18      12.55462   7.7352E-02 -2.2839E-01 -2.1507E-07   1.78840E-02
 TDDFPT|     19      13.09520   1.5172E-01  2.9207E-01  2.8432E-07   3.47529E-02
 TDDFPT|     20      13.47810  -4.4592E-02  2.1290E-01  2.9164E-07   1.56233E-02

 TDDFPT : CheckSum  =  0.174139E+01
 
[...]
 J. VandeVondele, M. Krack, J. Hutter.
 J. Chem. Phys. 152, 194103 (2020).
 CP2K: An electronic structure and molecular dynamics software package - 
 Quickstep: Efficient and accurate electronic structure calculations.
 https://doi.org/10.1063/5.0007045

 O. Schuett, P. Messmer, J. Hutter, J. VandeVondele.
 Electronic Structure Calculations on Graphics Processing Units, 173-190 (2016).
 GPU-Accelerated Sparse Matrix-Matrix Multiplication for Linear Scaling Density 
 Functional Theory.
 https://doi.org/10.1002/9781118670712.ch8

 A. Heinecke, G. Henry, M. Hutchinson, H. Pabst.
 Proceedings of Intl. Supercomputing Conference, 981-991 (2016).
 LIBXSMM: Accelerating Small Matrix Multiplications by Runtime Code Generation.
 https://doi.org/10.1109/SC.2016.83

 J. Hutter, M. Iannuzzi, F. Schiffmann, J. VandeVondele.
 WIREs Comput Mol Sci. 4, 15-25 (2014).
 CP2K: atomistic simulations of condensed matter systems.
 https://doi.org/10.1002/wcms.1159

 U. Borstnik, J. VandeVondele, V. Weber, J. Hutter.
 Parallel Comput. 40, 47-58 (2014).
 Sparse matrix multiplication: The distributed block-compressed sparse row 
 library.
 https://doi.org/10.1016/j.parco.2014.03.012

 A. Marek, V. Blum, R. Johanni, V. Havu, B. Lang, T. Auckenthaler, A. Heinecke, 
 H. Bungartz, H. Lederer.
 J. Phys. Condens. Matter 26, 213201 (2014).
 The ELPA library: scalable parallel eigenvalue solutions for electronic 
 structure theory and computational science.
 https://doi.org/10.1088/0953-8984/26/21/213201

 M. Guidon, J. Hutter, J. VandeVondele.
 J. Chem. Theory Comput. 5, 3010-3021 (2009).
 Robust Periodic Hartree-Fock Exchange for Large-Scale Simulations Using 
 Gaussian Basis Sets.
 https://doi.org/10.1021/ct900494g

 M. Guidon, F. Schiffmann, J. Hutter, J. VandeVondele.
 J. Chem. Phys. 128, 214104 (2008).
 Ab initio molecular dynamics using hybrid density functionals.
 https://doi.org/10.1063/1.2931945

 L. Genovese, T. Deutsch, S. Goedecker.
 J. Chem. Phys. 127, 054704 (2007).
 Efficient and accurate three-dimensional Poisson solver for surface problems.
 https://doi.org/10.1063/1.2754685

 J. VandeVondele, J. Hutter.
 J. Chem. Phys. 127, 114105 (2007).
 Gaussian basis sets for accurate calculations on molecular systems in gas and 
 condensed phases.
 https://doi.org/10.1063/1.2770708

 L. Genovese, T. Deutsch, A. Neelov, S. Goedecker, G. Beylkin.
 J. Chem. Phys. 125, 074105 (2006).
 Efficient solution of Poisson's equation with free boundary conditions.
 https://doi.org/10.1063/1.2335442

 M. Iannuzzi, T. Chassaing, T. Wallman, J. Hutter.
 CHIMIA 59, 499-503 (2005).
 Ground and excited state density functional calculations with the Gaussian and 
 augmented-plane-wave method.
 https://doi.org/10.2533/000942905777676164

 M. Frigo, S. G. Johnson.
 Proc. IEEE 93, 216-231 (2005).
 The design and implementation of FFTW3.
 https://doi.org/10.1109/JPROC.2004.840301

 J. VandeVondele, J. Hutter.
 J. Chem. Phys. 118, 4365-4369 (2003).
 An efficient orbital transformation method for electronic structure 
 calculations.
 https://doi.org/10.1063/1.1543154

 R. L. Martin.
 J. Chem. Phys. 118, 4775-4777 (2003).
 Natural transition orbitals.
 https://doi.org/10.1063/1.1558471

 M. Krack, M. Parrinello.
 Phys. Chem. Chem. Phys. 2, 2105-2112 (2000).
 All-electron ab-initio molecular dynamics.
 https://doi.org/10.1039/b001167n

 G. Lippert, J. Hutter, M. Parrinello.
 Theor. Chem. Acc. 103, 124-140 (1999).
 The Gaussian and augmented-plane-wave density functional method for ab initio 
 molecular dynamics simulations.
 https://doi.org/10.1007/s002140050523

 J. P. Perdew, K. Burke, M. Ernzerhof.
 Phys. Rev. Lett. 77, 3865-3868 (1996).
 Generalized gradient approximation made simple.
 https://doi.org/10.1103/PhysRevLett.77.3865


 -------------------------------------------------------------------------------
 -                                                                             -
 -                                T I M I N G                                  -
 -                                                                             -
 -------------------------------------------------------------------------------
 SUBROUTINE                       CALLS  ASD         SELF TIME        TOTAL TIME
                                MAXIMUM       AVERAGE  MAXIMUM  AVERAGE  MAXIMUM
 CP2K                                 1  1.0    0.019    0.031  488.054  488.058
 qs_energies                          1  2.0    0.000    0.000  482.831  482.836
 qs_energies_properties               1  3.0    0.000    0.000  418.815  418.820
 tddfpt                               1  4.0    0.001    0.002  418.815  418.820
 tddfpt_energies                      1  5.0    0.000    0.000  418.805  418.808
 tddfpt_davidson_solver               1  6.0    0.000    0.001  417.259  417.263
 tddfpt_compute_Aop_evects            7  7.0    0.000    0.000  416.946  416.949
 fhxc_kernel                          7  8.0    0.005    0.005  410.806  410.809
 fft_wrap_pw1pw2                   3171 11.3    0.064    0.077  243.766  244.853
 fft_wrap_pw1pw2_250               2223 12.4    9.261    9.699  235.933  238.691
 pw_poisson_solve                   165  9.7    4.946    5.638  169.913  170.234
 tddfpt_apply_coulomb               140  9.0    0.002    0.002  169.245  169.629
 fft3d_ps                          3171 13.3   83.576   89.468  163.050  169.485
 tddfpt_apply_xc_analytic           140  9.0    0.669    0.729  126.320  126.816
 xc_pw_derive                       945 11.0    0.006    0.007  111.509  112.300
 ps_wavelet_solve                   165 10.7   91.134   96.638  107.232  107.695
 xc_calc_2nd_deriv_analytical       700 10.3    5.039    5.336   73.817   74.437
 xc_pw_divergence                   149 10.9    0.003    0.004   70.941   72.194
 qs_rho_update_rho_low              167  8.4    0.002    0.002   67.570   67.571
 calculate_rho_elec                 167  9.4    2.595    2.666   67.524   67.525
 mp_alltoall_z22v                  3171 15.3   50.404   63.703   50.404   63.703
 scf_env_do_scf                       1  3.0    0.000    0.000   62.961   62.961
 scf_env_do_scf_inner_loop           25  4.0    0.000    0.001   58.900   58.901
 density_rs2pw                      167 10.4    0.006    0.007   53.254   53.775
 qs_ks_update_qs_env                 26  5.0    0.000    0.000   52.758   52.759
 rebuild_ks_matrix                   25  6.0    0.000    0.000   52.757   52.757
 qs_ks_build_kohn_sham_matrix        25  7.0    0.003    0.004   52.757   52.757
 mp_alltoall_d54                    165 11.7   10.489   49.759   10.489   49.759
 x_to_yz                           1575 14.0   15.375   16.602   42.151   47.629
 yz_to_x                           1596 14.6   13.641   14.614   37.269   43.639
 pw_gather_p                       1596 13.6   33.006   39.008   33.006   39.008
 integrate_v_rspace                 149  9.0    0.004    0.004   34.656   34.763
 potential_pw2rs                    149 10.0    0.058    0.062   34.531   34.552
 prepare_gapw_den                   166  8.8    0.002    0.002   29.297   30.299
 put_rho0_on_grid                   166  9.8    2.592    2.665   29.106   30.108
 pw_scatter_p                      1575 13.0   28.154   28.816   28.154   28.816
 transfer_pw2rs                     762 10.9    0.011    0.016   22.509   23.220
 transfer_rs2pw                     835 11.3    0.015    0.020   19.100   19.913
 mp_waitany                       19300 13.0   15.292   19.563   15.292   19.563
 transfer_pw2rs_250                 315 11.8    6.056    7.158   16.547   17.920
 qs_vxc_create                       25  8.0    0.000    0.000   15.876   15.877
 transfer_rs2pw_250                 334 12.1    5.930    7.092   14.072   15.174
 pw_derive                         1440 11.9   12.646   13.301   12.646   13.301
 xc_rho_set_and_dset_create          26  9.9    0.221    0.246   10.525   11.813
 grid_collocate_task_list           167 10.4   11.051   11.561   11.051   11.561
 integrate_vhg0_rspace              165  9.7    0.024    0.034   10.829   10.859
 mp_alltoall_d11v                 11833 11.8    5.436    9.971    5.436    9.971
 mp_waitall_1                     82785 14.1    5.619    9.335    5.619    9.335
 xc_vxc_pw_create                     9  9.0    0.203    0.213    8.530    8.532
 cp2k_distribution_to_z_slices      165 10.7    4.009    4.893    7.305    8.238
 fft_wrap_pw1pw2_90                 316 12.2    0.242    0.269    6.620    7.915
 mp_alltoall_d45                    166 11.7    4.537    7.615    4.537    7.615
 pw_copy                           2120 11.1    7.208    7.563    7.208    7.563
 xc_exc_calc                         16  9.0    0.250    0.258    7.345    7.346
 mp_sum_d                          2252  8.0    4.101    7.280    4.101    7.280
 pw_poisson_set                     166 10.7    0.003    0.004    6.834    7.229
 integrate_four_center              305  9.9    2.946    6.134    6.561    6.593
 pw_copy_to_array                  1596 13.6    5.917    6.389    5.917    6.389
 mp_sync                           1581 11.6    3.194    6.096    3.194    6.096
 tddfpt_apply_hfx                     7  8.0    0.001    0.001    6.034    6.034
 pw_axpy                           1718 11.1    5.485    5.785    5.485    5.785
 tddft_hfx_matrix                   280  9.0    0.002    0.003    5.635    5.657
 pw_integral_ab_c1d_c1d_gs          165 10.7    3.631    3.859    4.898    5.628
 transfer_pw2rs_90                  149 12.0    0.772    0.937    4.088    4.793
 create_qs_kind_set                   1  2.0    0.000    0.000    4.375    4.376
 read_qs_kind                         3  3.0    0.100    1.142    4.375    4.376
 parser_read_line                 13838  4.0    0.002    0.002    4.275    4.346
 parser_read_line_low                23  5.0    0.201    3.204    4.273    4.344
 broadcast_input_information         23  6.0    0.004    0.004    4.072    4.343
 mp_bcast_i_src                      97  7.0    4.054    4.327    4.054    4.327
 pw_copy_from_array                1575 13.0    4.017    4.214    4.017    4.214
 init_scf_loop                        1  4.0    0.000    0.000    4.059    4.059
 pw_zero                           1960 10.6    3.718    3.938    3.718    3.938
 rs_grid_zero                       796 12.0    3.489    3.660    3.489    3.660
 mp_isend_dm3                      3860 13.0    0.984    3.618    0.984    3.618
 transfer_rs2pw_90                  167 12.4    0.770    0.889    3.111    3.488
 mp_isend_dv                      26323 13.5    1.378    3.484    1.378    3.484
 mp_irecv_dm3                      3860 13.0    0.417    2.481    0.417    2.481
 sum_up_and_integrate                 9  8.0    0.000    0.000    2.086    2.099
 xc_functional_eval                 686 10.9    0.001    0.002    0.644    2.038
 pbe_lda_eval                       686 11.9    0.643    2.036    0.643    2.036
 transfer_pw2rs_30                  149 12.0    0.606    0.674    1.518    2.011
 mp_max_i                           631  4.3    0.882    1.931    0.882    1.931
 prepare_dr1dr                      700 11.3    1.521    1.733    1.521    1.733
 transfer_rs2pw_30                  167 12.4    0.562    0.687    1.488    1.564
 mp_sum_dm                         2026 10.5    0.849    1.532    0.849    1.532
 mp_irecv_dv                      25345 13.5    0.203    1.522    0.203    1.522
 Vh_1c_gg_integrals                 165  9.7    0.012    0.034    0.612    1.468
 mp_sendrecv_dv                    5010 13.4    1.224    1.389    1.224    1.389
 scale_and_distribute               330 11.7    1.166    1.376    1.166    1.376
 fft_wrap_pw1pw2_30                 316 12.2    0.046    0.049    0.926    1.080
 pw_poisson_rebuild                 165 10.7    0.000    0.000    0.977    1.006
 ps_wavelet_create                    1 10.0    0.000    0.000    0.977    1.006
 RS_z_slice_distribution              1 11.0    0.883    0.935    0.977    1.006
 hfx_ks_matrix                       25  8.0    0.000    0.000    0.929    0.942
 cp_dbcsr_sm_fm_multiply            887  8.6    0.008    0.009    0.837    0.854
 qs_init_subsys                       1  2.0    0.001    0.001    0.803    0.803
 qs_env_setup                         1  3.0    0.000    0.000    0.800    0.801
 qs_env_rebuild_pw_env                2  3.5    0.000    0.000    0.800    0.801
 pw_env_rebuild                       1  5.0    0.000    0.000    0.800    0.801
 pw_grid_setup                        4  6.0    0.000    0.000    0.795    0.795
 pw_grid_setup_internal               4  7.0    0.011    0.011    0.795    0.795
 calculate_xc_2nd_deriv_atom        140  9.0    0.042    0.170    0.121    0.698
 pw_grid_sort                         4  8.0    0.468    0.485    0.652    0.673
 dbcsr_multiply_generic            1380 10.2    0.026    0.027    0.592    0.619
 init_scf_run                         1  3.0    0.000    0.000    0.612    0.612
 scf_env_initial_rho_setup            1  4.0    0.000    0.000    0.612    0.612
 create_kernel_env                    1  6.0    0.000    0.000    0.551    0.607
 xc_prep_2nd_deriv                    1  7.0    0.000    0.000    0.551    0.607
 tddfpt_construct_ground_state_       1  6.0    0.000    0.000    0.580    0.586
 dbcsr_complete_redistribute       2795 10.6    0.052    0.067    0.437    0.532
 transfer_rs2pw_10                  167 12.4    0.115    0.123    0.414    0.490
 pw_scale                           316  9.5    0.427    0.478    0.427    0.478
 cp_dbcsr_sm_fm_multiply_core       887  9.6    0.001    0.001    0.379    0.404
 transfer_pw2rs_10                  149 12.0    0.108    0.120    0.345    0.404
 copy_dbcsr_to_fm                   917  9.5    0.005    0.006    0.352    0.398
 gaVxcgb_GC                         298  9.9    0.043    0.368    0.043    0.368
 copy_fm_to_dbcsr                  1876  9.6    0.004    0.004    0.252    0.324
 qs_energies_init_hamiltonians        1  3.0    0.000    0.000    0.315    0.315
 fft_wrap_pw1pw2_10                 316 12.2    0.010    0.011    0.224    0.275
 mp_alltoall_i22                   3729 11.6    0.207    0.249    0.207    0.249
 cp_fm_write_unformatted             22  7.0    0.227    0.242    0.227    0.243
 tddfpt_write_restart                 1  6.0    0.015    0.234    0.236    0.237
 parallel_gemm_fm                  1193  8.4    0.001    0.001    0.194    0.232
 parallel_gemm_fm_cosma            1193  9.4    0.193    0.232    0.193    0.232
 powell_optimize                 153914 11.0    0.226    0.229    0.226    0.229
 update_ks_atom                     165  8.8    0.008    0.010    0.101    0.222
 multiply_cannon                   1380 11.2    0.070    0.077    0.207    0.219
 mp_bcast_dm                       1347  9.9    0.094    0.217    0.094    0.217
 make_m2s                          2760 11.2    0.011    0.012    0.200    0.214
 grid_integrate_task_list           149 10.0    0.055    0.209    0.055    0.209
 build_core_hamiltonian_matrix        1  4.0    0.000    0.000    0.193    0.193
 overlap_condnum                      1  5.0    0.000    0.000    0.192    0.192
 sort_shells                          4  9.0    0.184    0.188    0.184    0.188
 calc_screening_functions             1 10.0    0.051    0.053    0.183    0.186
 rs_gather_matrices                 149 10.0    0.002    0.002    0.066    0.181
 calculate_rho_atom                 498  9.8    0.110    0.180    0.110    0.180
 make_images                       2760 12.2    0.026    0.026    0.169    0.180
 tddfpt_orthonormalize_psi1_psi       8  6.9    0.006    0.007    0.172    0.172
 xc_2nd_deriv_of_r                  560 10.0    0.003    0.023    0.023    0.166
 cp_dbcsr_plus_fm_fm_t              141  9.0    0.001    0.001    0.150    0.152
 mp_alltoall_i11v                  9351 11.6    0.053    0.151    0.053    0.151
 calc_pair_dist_radii                 1 10.0    0.055    0.055    0.149    0.150
 calculate_first_density_matrix       1  5.0    0.002    0.036    0.144    0.144
 dbcsr_desymmetrize_deep            918 10.5    0.008    0.009    0.134    0.140
 mp_sum_dv                        11943  9.1    0.124    0.139    0.124    0.139
 mp_sum_l                          5481 10.5    0.102    0.134    0.102    0.134
 scf_post_calculation_gpw             1  3.0    0.000    0.000    0.128    0.128
 write_available_results              1  4.0    0.000    0.000    0.128    0.128
 write_mo_free_results                1  5.0    0.019    0.020    0.128    0.128
 qs_env_update_s_mstruct              1  4.0    0.000    0.000    0.021    0.122
 qs_create_task_list                  1  5.0    0.000    0.000    0.021    0.122
 generate_qs_task_list                1  6.0    0.000    0.000    0.021    0.122
 distribute_tasks                     1  7.0    0.000    0.000    0.021    0.122
 create_local_tasks                   1  8.0    0.000    0.000    0.021    0.121
 calculate_ecore_overlap              1  4.0    0.000    0.000    0.101    0.121
 mp_alltoall_l11v                     1  9.0    0.021    0.121    0.021    0.121
 tddfpt_compute_residual_vects        6  7.0    0.000    0.000    0.108    0.108
 tddfpt_apply_energy_diff             7  8.0    0.000    0.000    0.106    0.106
 tddfpt_print_nto_analysis            1  6.0    0.001    0.002    0.103    0.103
 hybrid_alltoall_any               3678 13.5    0.012    0.014    0.036    0.102
 qs_scf_new_mos                      25  5.0    0.000    0.000    0.097    0.098
 qs_scf_loop_do_ot                   25  6.0    0.000    0.000    0.097    0.098
 tddfpt_orthogonalize_psi1_psi0       8  6.9    0.000    0.000    0.063    0.097
 multiply_cannon_loop              1380 12.2    0.016    0.016    0.085    0.091
 ot_scf_mini                         25  7.0    0.000    0.000    0.087    0.087
 pw_grid_assign                       4  8.0    0.079    0.080    0.080    0.080
 dbcsr_finalize                    5750 11.4    0.013    0.015    0.070    0.078
 offload_free_buffer                173 10.4    0.059    0.074    0.059    0.074
 mp_bcast_b_src                      57  8.0    0.069    0.074    0.069    0.074
 make_images_sizes                 2760 13.2    0.002    0.002    0.064    0.072
 mp_alltoall_i44                   2760 14.2    0.062    0.070    0.062    0.070
 mp_cart_create                    1417 10.9    0.064    0.069    0.065    0.070
 integrate_four_center_main         305 10.9    0.024    0.040    0.049    0.069
 make_basis_sm                        1  6.0    0.000    0.000    0.069    0.069
 calculate_vxc_atom                  25  8.0    0.009    0.020    0.068    0.069
 cp_fm_norm                           2  6.0    0.029    0.064    0.029    0.064
 hirshfeld_integration                1  6.0    0.000    0.001    0.063    0.063
 pw_grid_remap                        4  8.0    0.019    0.020    0.045    0.063
 cp_fm_trace_a1b1t1_aa            10080  8.0    0.017    0.018    0.061    0.061
 mp_cart_sub                       1836 11.5    0.059    0.060    0.059    0.060
 dbcsr_create_new                 19280 11.7    0.038    0.041    0.051    0.055
 cp_fm_to_fm_columns                175  7.1    0.009    0.050    0.009    0.050
 tddfpt_guess_vectors                 1  6.0    0.000    0.000    0.008    0.050
 -------------------------------------------------------------------------------

 The number of warnings for this run is : 0
 
 -------------------------------------------------------------------------------
  **** **** ******  **  PROGRAM ENDED AT                 2025-07-01 14:28:23.715
 ***** ** ***  *** **   PROGRAM RAN ON                     n2cn0657.ab2021.local
 **    ****   ******    PROGRAM RAN BY                                  metdyn02
 ***** **    ** ** **   PROGRAM PROCESS ID                               1392295
  **** **  *******  **  PROGRAM STOPPED IN /scratch/hpc-prf-metdyn/metdyn02_Remi
                                           /10_MOL/05_MOL/W4-11+ALK/t-hono/mini-
                                           SZV/TDDFT/1e-4
