 DBCSR| CPU Multiplication driver                                           BLAS (U)
 DBCSR| Multrec recursion limit                                              512 (U)
 DBCSR| Multiplication stack size                                           1000 (D)
 DBCSR| Maximum elements for images                                    UNLIMITED (U)
 DBCSR| Multiplicative factor virtual images                                   1 (U)
 DBCSR| Use multiplication densification                                       T (D)
 DBCSR| Multiplication size stacks                                             3 (U)
 DBCSR| Use memory pool for CPU allocation                                     F (U)
 DBCSR| Number of 3D layers                                               SINGLE (U)
 DBCSR| Use MPI memory allocation                                              F (U)
 DBCSR| Use RMA algorithm                                                      F (U)
 DBCSR| Use Communication thread                                               T (U)
 DBCSR| Communication thread load                                             75 (D)
 DBCSR| MPI: My process id                                                     0
 DBCSR| MPI: Number of processes                                              96
 DBCSR| OMP: Current number of threads                                         4
 DBCSR| OMP: Max number of threads                                             4
 DBCSR| Split modifier for TAS multiplication algorithm                  1.0E+00 (U)


  **** **** ******  **  PROGRAM STARTED AT               2025-04-10 21:46:24.423
 ***** ** ***  *** **   PROGRAM STARTED ON                          i04r01c01s01
 **    ****   ******    PROGRAM STARTED BY                               di38fab
 ***** **    ** ** **   PROGRAM PROCESS ID                                145292
  **** **  *******  **  PROGRAM STARTED IN /hppfs/scratch/04/di38fab/05_MOL/W4-1
                                           1+ALK/sih3f/aug-cc-pVQZ/TDDFT

 CP2K| version string:                 CP2K version 2025.1 (Development Version)
 CP2K| source code revision number:                             unknown revision
 CP2K| cp2kflags: omp libint fftw3 libxc parallel scalapack max_contr=4         
 CP2K| is freely available from                            https://www.cp2k.org/
 CP2K| Program compiled at                         Thu Apr 10 16:20:23 CEST 2025
 CP2K| Program compiled on                                               login01
 CP2K| Program compiled for                                        Supermuc-foss
 CP2K| Data directory path                  /hppfs/work/pn36zo/di38fab/cp2k/data
 CP2K| Input file name                                                    GW.inp

 GLOBAL| Force Environment number                                              1
 GLOBAL| Basis set file name            /hppfs/scratch/04/di38fab/04_TMD/BASIS_A
 GLOBAL| Potential file name            /hppfs/work/pn36zo/di38fab/cp2k/data/ALL
 GLOBAL| MM Potential file name                                     MM_POTENTIAL
 GLOBAL| Coordinate file name                                      __STD_INPUT__
 GLOBAL| Method name                                                        CP2K
 GLOBAL| Project name                                                       MoS2
 GLOBAL| Run type                                                         ENERGY
 GLOBAL| FFT library                                                       FFTW3
 GLOBAL| Diagonalization library                                       ScaLAPACK
 GLOBAL| DGEMM library                                                      BLAS
 GLOBAL| Orthonormality check for eigenvectors                          DISABLED
 GLOBAL| Matrix multiplication library                                 ScaLAPACK
 GLOBAL| All-to-all communication in single precision                          F
 GLOBAL| FFTs using library dependent lengths                                  F
 GLOBAL| Grid backend                                                       AUTO
 GLOBAL| Global print level                                               MEDIUM
 GLOBAL| MPI I/O enabled                                                       T
 GLOBAL| Total number of message passing processes                            96
 GLOBAL| Number of threads for this process                                    4
 GLOBAL| This output is from process                                           0
 GLOBAL| OpenMP stack size per thread (OMP_STACKSIZE)                    default
 GLOBAL| CPU model name             Intel(R) Xeon(R) Platinum 8174 CPU @ 3.10GHz

 MEMORY| system memory details [Kb]
 MEMORY|                        rank 0           min           max       average
 MEMORY| MemTotal             98436660      98436660      98436708      98436674
 MEMORY| MemFree              83172256      83172256      83986756      83728542
 MEMORY| Buffers                     0             0             0             0
 MEMORY| Cached                2411992       2387372       2413848       2399135
 MEMORY| Slab                  1296116       1244940       1296116       1262647
 MEMORY| SReclaimable           278916        271048        281308        275990
 MEMORY| MemLikelyFree        85863164      85863164      86654856      86403668


 *** Fundamental physical constants (SI units) ***

 *** Literature: B. J. Mohr and B. N. Taylor,
 ***             CODATA recommended values of the fundamental physical
 ***             constants: 2006, Web Version 5.1
 ***             http://physics.nist.gov/constants

 Speed of light in vacuum [m/s]                             2.99792458000000E+08
 Magnetic constant or permeability of vacuum [N/A**2]       1.25663706143592E-06
 Electric constant or permittivity of vacuum [F/m]          8.85418781762039E-12
 Planck constant (h) [J*s]                                  6.62606896000000E-34
 Planck constant (h-bar) [J*s]                              1.05457162825177E-34
 Elementary charge [C]                                      1.60217648700000E-19
 Electron mass [kg]                                         9.10938215000000E-31
 Electron g factor [ ]                                     -2.00231930436220E+00
 Proton mass [kg]                                           1.67262163700000E-27
 Fine-structure constant                                    7.29735253760000E-03
 Rydberg constant [1/m]                                     1.09737315685270E+07
 Avogadro constant [1/mol]                                  6.02214179000000E+23
 Boltzmann constant [J/K]                                   1.38065040000000E-23
 Atomic mass unit [kg]                                      1.66053878200000E-27
 Bohr radius [m]                                            5.29177208590000E-11

 *** Conversion factors ***

 [u] -> [a.u.]                                              1.82288848426455E+03
 [Angstrom] -> [Bohr] = [a.u.]                              1.88972613288564E+00
 [a.u.] = [Bohr] -> [Angstrom]                              5.29177208590000E-01
 [a.u.] -> [s]                                              2.41888432650478E-17
 [a.u.] -> [fs]                                             2.41888432650478E-02
 [a.u.] -> [J]                                              4.35974393937059E-18
 [a.u.] -> [N]                                              8.23872205491840E-08
 [a.u.] -> [K]                                              3.15774647902944E+05
 [a.u.] -> [kJ/mol]                                         2.62549961709828E+03
 [a.u.] -> [kcal/mol]                                       6.27509468713739E+02
 [a.u.] -> [Pa]                                             2.94210107994716E+13
 [a.u.] -> [bar]                                            2.94210107994716E+08
 [a.u.] -> [atm]                                            2.90362800883016E+08
 [a.u.] -> [eV]                                             2.72113838565563E+01
 [a.u.] -> [Hz]                                             6.57968392072181E+15
 [a.u.] -> [1/cm] (wave numbers)                            2.19474631370540E+05
 [a.u./Bohr**2] -> [1/cm]                                   5.14048714338585E+03
 

 CELL_TOP| Volume [angstrom^3]:                                     27000.000000
 CELL_TOP| Vector a [angstrom    30.000     0.000     0.000   |a| =    30.000000
 CELL_TOP| Vector b [angstrom     0.000    30.000     0.000   |b| =    30.000000
 CELL_TOP| Vector c [angstrom     0.000     0.000    30.000   |c| =    30.000000
 CELL_TOP| Angle (b,c), alpha [degree]:                                90.000000
 CELL_TOP| Angle (a,c), beta  [degree]:                                90.000000
 CELL_TOP| Angle (a,b), gamma [degree]:                                90.000000
 CELL_TOP| Numerically orthorhombic:                                         YES
 CELL_TOP| Periodicity                                                      NONE

 GENERATE|  Preliminary Number of Bonds generated:                             0
 GENERATE|  Achieved consistency in connectivity generation.

 CELL| Volume [angstrom^3]:                                         27000.000000
 CELL| Vector a [angstrom]:      30.000     0.000     0.000   |a| =    30.000000
 CELL| Vector b [angstrom]:       0.000    30.000     0.000   |b| =    30.000000
 CELL| Vector c [angstrom]:       0.000     0.000    30.000   |c| =    30.000000
 CELL| Angle (b,c), alpha [degree]:                                    90.000000
 CELL| Angle (a,c), beta  [degree]:                                    90.000000
 CELL| Angle (a,b), gamma [degree]:                                    90.000000
 CELL| Numerically orthorhombic:                                             YES
 CELL| Periodicity                                                          NONE

 CELL_REF| Volume [angstrom^3]:                                     27000.000000
 CELL_REF| Vector a [angstrom    30.000     0.000     0.000   |a| =    30.000000
 CELL_REF| Vector b [angstrom     0.000    30.000     0.000   |b| =    30.000000
 CELL_REF| Vector c [angstrom     0.000     0.000    30.000   |c| =    30.000000
 CELL_REF| Angle (b,c), alpha [degree]:                                90.000000
 CELL_REF| Angle (a,c), beta  [degree]:                                90.000000
 CELL_REF| Angle (a,b), gamma [degree]:                                90.000000
 CELL_REF| Numerically orthorhombic:                                         YES
 CELL_REF| Periodicity                                                      NONE

 *******************************************************************************
 *******************************************************************************
 **                                                                           **
 **     #####                         ##              ##                      **
 **    ##   ##            ##          ##              ##                      **
 **   ##     ##                       ##            ######                    **
 **   ##     ##  ##   ##  ##   #####  ##  ##   ####   ##    #####    #####    **
 **   ##     ##  ##   ##  ##  ##      ## ##   ##      ##   ##   ##  ##   ##   **
 **   ##  ## ##  ##   ##  ##  ##      ####     ###    ##   ######   ######    **
 **    ##  ###   ##   ##  ##  ##      ## ##      ##   ##   ##       ##        **
 **     #######   #####   ##   #####  ##  ##  ####    ##    #####   ##        **
 **           ##                                                    ##        **
 **                                                                           **
 **                                                ... make the atoms dance   **
 **                                                                           **
 **            Copyright (C) by CP2K developers group (2000-2025)             **
 **                      J. Chem. Phys. 152, 194103 (2020)                    **
 **                                                                           **
 *******************************************************************************

 DFT| Spin restricted Kohn-Sham (RKS) calculation                            RKS
 DFT| Multiplicity                                                             1
 DFT| Number of spin states                                                    1
 DFT| Charge                                                                   0
 DFT| Self-interaction correction (SIC)                                       NO
 DFT| Cutoffs: density                                              1.000000E-10
 DFT|          gradient                                             1.000000E-10
 DFT|          tau                                                  1.000000E-10
 DFT|          cutoff_smoothing_range                               0.000000E+00
 DFT| XC density smoothing                                                  NONE
 DFT| XC derivatives                                                          PW

 FUNCTIONAL| PBE:
 FUNCTIONAL| J.P.Perdew, K.Burke, M.Ernzerhof, Phys. Rev. Letter, vol. 77, n 18,
 FUNCTIONAL|  pp. 3865-3868, (1996)sx=0.750sc=1.000{spin unpolarized}           


 QS| Method:                                                                GAPW
 QS| Density plane wave grid type                        NON-SPHERICAL FULLSPACE
 QS| Number of grid levels:                                                    4
 QS| Density cutoff [a.u.]:                                                250.0
 QS| Multi grid cutoff [a.u.]: 1) grid level                               250.0
 QS|                           2) grid level                                83.3
 QS|                           3) grid level                                27.8
 QS|                           4) grid level                                 9.3
 QS| Grid level progression factor:                                          3.0
 QS| Relative density cutoff [a.u.]:                                        50.0
 QS| Interaction thresholds: eps_pgf_orb:                                1.0E-12
 QS|                         eps_filter_matrix:                          0.0E+00
 QS|                         eps_core_charge:                            1.0E-14
 QS|                         eps_rho_gspace:                             1.0E-12
 QS|                         eps_rho_rspace:                             1.0E-12
 QS|                         eps_gvg_rspace:                             1.0E-06
 QS|                         eps_ppl:                                    1.0E-02
 QS|                         eps_ppnl:                                   1.0E-08
 QS| GAPW|      One center basis from orbital basis primitives
 QS| GAPW|                   eps_fit:                                    1.0E-04
 QS| GAPW|                   eps_iso:                                    1.0E-12
 QS| GAPW|                   eps_svd:                                    1.0E-08
 QS| GAPW|                   eps_cpc:                                    1.0E-12
 QS| GAPW|   atom-r-grid: quadrature:                                     GC_LOG
 QS| GAPW|      atom-s-grid:  max l :                                          8
 QS| GAPW|      max_l_rho0 :                                                   2


 ATOMIC KIND INFORMATION

  1. Atomic kind: F                                     Number of atoms:       1

     Orbital Basis Set                                               aug-cc-pVQZ

       Number of orbital shell sets:                                          10
       Number of orbital shells:                                              20
       Number of primitive Cartesian functions:                               29
       Number of Cartesian basis functions:                                  105
       Number of spherical basis functions:                                   80
       Norm type:                                                              2

       Normalised Cartesian orbitals:

                        Set   Shell   Orbital            Exponent    Coefficient

                          1       1    1px               0.065680       0.047395
                          1       1    1py               0.065680       0.047395
                          1       1    1pz               0.065680       0.047395

                          2       1    1s                0.085940       0.113124

                          3       1    1dx2              0.207000       0.104558
                          3       1    1dxy              0.207000       0.181100
                          3       1    1dxz              0.207000       0.181100
                          3       1    1dy2              0.207000       0.104558
                          3       1    1dyz              0.207000       0.181100
                          3       1    1dz2              0.207000       0.104558

                          4       1    1px              80.390000       0.000000
                                                        18.630000       0.000000
                                                         5.694000       0.000000
                                                         1.953000       3.290924
                                                         0.670200       0.000000
                                                         0.216600       0.000000
                          4       1    1py              80.390000       0.000000
                                                        18.630000       0.000000
                                                         5.694000       0.000000
                                                         1.953000       3.290924
                                                         0.670200       0.000000
                                                         0.216600       0.000000
                          4       1    1pz              80.390000       0.000000
                                                        18.630000       0.000000
                                                         5.694000       0.000000
                                                         1.953000       3.290924
                                                         0.670200       0.000000
                                                         0.216600       0.000000

                          4       2    2px              80.390000       2.177765
                                                        18.630000       2.438752
                                                         5.694000       2.112749
                                                         1.953000       1.189876
                                                         0.670200       0.382202
                                                         0.216600       0.051274
                          4       2    2py              80.390000       2.177765
                                                        18.630000       2.438752
                                                         5.694000       2.112749
                                                         1.953000       1.189876
                                                         0.670200       0.382202
                                                         0.216600       0.051274
                          4       2    2pz              80.390000       2.177765
                                                        18.630000       2.438752
                                                         5.694000       2.112749
                                                         1.953000       1.189876
                                                         0.670200       0.382202
                                                         0.216600       0.051274

                          4       3    3px              80.390000       0.000000
                                                        18.630000       0.000000
                                                         5.694000       0.000000
                                                         1.953000       0.000000
                                                         0.670200       0.864362
                                                         0.216600       0.000000
                          4       3    3py              80.390000       0.000000
                                                        18.630000       0.000000
                                                         5.694000       0.000000
                                                         1.953000       0.000000
                                                         0.670200       0.864362
                                                         0.216600       0.000000
                          4       3    3pz              80.390000       0.000000
                                                        18.630000       0.000000
                                                         5.694000       0.000000
                                                         1.953000       0.000000
                                                         0.670200       0.864362
                                                         0.216600       0.000000

                          4       4    4px              80.390000       0.000000
                                                        18.630000       0.000000
                                                         5.694000       0.000000
                                                         1.953000       0.000000
                                                         0.670200       0.000000
                                                         0.216600       0.210627
                          4       4    4py              80.390000       0.000000
                                                        18.630000       0.000000
                                                         5.694000       0.000000
                                                         1.953000       0.000000
                                                         0.670200       0.000000
                                                         0.216600       0.210627
                          4       4    4pz              80.390000       0.000000
                                                        18.630000       0.000000
                                                         5.694000       0.000000
                                                         1.953000       0.000000
                                                         0.670200       0.000000
                                                         0.216600       0.210627

                          5       1    1s            74530.000000       0.305409
                                                     11170.000000       0.571488
                                                      2543.000000       0.984652
                                                       721.000000       1.579315
                                                       235.900000       2.328994
                                                        85.600000       2.998782
                                                        33.550000       3.062569
                                                        13.930000       2.029128
                                                         5.915000       0.570457
                                                         1.843000       0.019335
                                                         0.712400      -0.001114
                                                         0.263700       0.000228

                          5       2    2s            74530.000000       0.000000
                                                     11170.000000       0.000000
                                                      2543.000000       0.000000
                                                       721.000000       0.000000
                                                       235.900000       0.000000
                                                        85.600000       0.000000
                                                        33.550000       0.000000
                                                        13.930000       0.000000
                                                         5.915000       0.000000
                                                         1.843000       1.127338
                                                         0.712400       0.000000
                                                         0.263700       0.000000

                          5       3    3s            74530.000000       0.000000
                                                     11170.000000       0.000000
                                                      2543.000000       0.000000
                                                       721.000000       0.000000
                                                       235.900000       0.000000
                                                        85.600000       0.000000
                                                        33.550000       0.000000
                                                        13.930000       0.000000
                                                         5.915000       0.000000
                                                         1.843000       0.000000
                                                         0.712400       0.552654
                                                         0.263700       0.000000

                          5       4    4s            74530.000000      -0.070726
                                                     11170.000000      -0.133192
                                                      2543.000000      -0.227404
                                                       721.000000      -0.371673
                                                       235.900000      -0.551778
                                                        85.600000      -0.763388
                                                        33.550000      -0.856807
                                                        13.930000      -0.800980
                                                         5.915000      -0.299821
                                                         1.843000       0.336804
                                                         0.712400       0.323309
                                                         0.263700       0.071116

                          5       5    5s            74530.000000       0.000000
                                                     11170.000000       0.000000
                                                      2543.000000       0.000000
                                                       721.000000       0.000000
                                                       235.900000       0.000000
                                                        85.600000       0.000000
                                                        33.550000       0.000000
                                                        13.930000       0.000000
                                                         5.915000       0.000000
                                                         1.843000       0.000000
                                                         0.712400       0.000000
                                                         0.263700       0.262266

                          6       1    1fx3              0.460000       0.256543
                          6       1    1fx2y             0.460000       0.573647
                          6       1    1fx2z             0.460000       0.573647
                          6       1    1fxy2             0.460000       0.573647
                          6       1    1fxyz             0.460000       0.993585
                          6       1    1fxz2             0.460000       0.573647
                          6       1    1fy3              0.460000       0.256543
                          6       1    1fy2z             0.460000       0.573647
                          6       1    1fyz2             0.460000       0.573647
                          6       1    1fz3              0.460000       0.256543

                          7       1    1dx2              5.014000      27.652349
                                                         1.725000       0.000000
                                                         0.586000       0.000000
                          7       1    1dxy              5.014000      47.895274
                                                         1.725000       0.000000
                                                         0.586000       0.000000
                          7       1    1dxz              5.014000      47.895274
                                                         1.725000       0.000000
                                                         0.586000       0.000000
                          7       1    1dy2              5.014000      27.652349
                                                         1.725000       0.000000
                                                         0.586000       0.000000
                          7       1    1dyz              5.014000      47.895274
                                                         1.725000       0.000000
                                                         0.586000       0.000000
                          7       1    1dz2              5.014000      27.652349
                                                         1.725000       0.000000
                                                         0.586000       0.000000

                          7       2    2dx2              5.014000       0.000000
                                                         1.725000       4.273566
                                                         0.586000       0.000000
                          7       2    2dxy              5.014000       0.000000
                                                         1.725000       7.402033
                                                         0.586000       0.000000
                          7       2    2dxz              5.014000       0.000000
                                                         1.725000       7.402033
                                                         0.586000       0.000000
                          7       2    2dy2              5.014000       0.000000
                                                         1.725000       4.273566
                                                         0.586000       0.000000
                          7       2    2dyz              5.014000       0.000000
                                                         1.725000       7.402033
                                                         0.586000       0.000000
                          7       2    2dz2              5.014000       0.000000
                                                         1.725000       4.273566
                                                         0.586000       0.000000

                          7       3    3dx2              5.014000       0.000000
                                                         1.725000       0.000000
                                                         0.586000       0.645997
                          7       3    3dxy              5.014000       0.000000
                                                         1.725000       0.000000
                                                         0.586000       1.118899
                          7       3    3dxz              5.014000       0.000000
                                                         1.725000       0.000000
                                                         0.586000       1.118899
                          7       3    3dy2              5.014000       0.000000
                                                         1.725000       0.000000
                                                         0.586000       0.645997
                          7       3    3dyz              5.014000       0.000000
                                                         1.725000       0.000000
                                                         0.586000       1.118899
                          7       3    3dz2              5.014000       0.000000
                                                         1.725000       0.000000
                                                         0.586000       0.645997

                          8       1    1gx4              0.924000       0.895434
                          8       1    1gx3y             0.924000       2.369094
                          8       1    1gx3z             0.924000       2.369094
                          8       1    1gx2y2            0.924000       3.058488
                          8       1    1gx2yz            0.924000       5.297456
                          8       1    1gx2z2            0.924000       3.058488
                          8       1    1gxy3             0.924000       2.369094
                          8       1    1gxy2z            0.924000       5.297456
                          8       1    1gxyz2            0.924000       5.297456
                          8       1    1gxz3             0.924000       2.369094
                          8       1    1gy4              0.924000       0.895434
                          8       1    1gy3z             0.924000       2.369094
                          8       1    1gy2z2            0.924000       3.058488
                          8       1    1gyz3             0.924000       2.369094
                          8       1    1gz4              0.924000       0.895434

                          9       1    1fx3              3.562000      25.660538
                                                         1.148000       0.000000
                          9       1    1fx2y             3.562000      57.378707
                                                         1.148000       0.000000
                          9       1    1fx2z             3.562000      57.378707
                                                         1.148000       0.000000
                          9       1    1fxy2             3.562000      57.378707
                                                         1.148000       0.000000
                          9       1    1fxyz             3.562000      99.382837
                                                         1.148000       0.000000
                          9       1    1fxz2             3.562000      57.378707
                                                         1.148000       0.000000
                          9       1    1fy3              3.562000      25.660538
                                                         1.148000       0.000000
                          9       1    1fy2z             3.562000      57.378707
                                                         1.148000       0.000000
                          9       1    1fyz2             3.562000      57.378707
                                                         1.148000       0.000000
                          9       1    1fz3              3.562000      25.660538
                                                         1.148000       0.000000

                          9       2    2fx3              3.562000       0.000000
                                                         1.148000       2.008277
                          9       2    2fx2y             3.562000       0.000000
                                                         1.148000       4.490645
                          9       2    2fx2z             3.562000       0.000000
                                                         1.148000       4.490645
                          9       2    2fxy2             3.562000       0.000000
                                                         1.148000       4.490645
                          9       2    2fxyz             3.562000       0.000000
                                                         1.148000       7.778025
                          9       2    2fxz2             3.562000       0.000000
                                                         1.148000       4.490645
                          9       2    2fy3              3.562000       0.000000
                                                         1.148000       2.008277
                          9       2    2fy2z             3.562000       0.000000
                                                         1.148000       4.490645
                          9       2    2fyz2             3.562000       0.000000
                                                         1.148000       4.490645
                          9       2    2fz3              3.562000       0.000000
                                                         1.148000       2.008277

                         10       1    1gx4              2.376000      12.023008
                         10       1    1gx3y             2.376000      31.809888
                         10       1    1gx3z             2.376000      31.809888
                         10       1    1gx2y2            2.376000      41.066389
                         10       1    1gx2yz            2.376000      71.129073
                         10       1    1gx2z2            2.376000      41.066389
                         10       1    1gxy3             2.376000      31.809888
                         10       1    1gxy2z            2.376000      71.129073
                         10       1    1gxyz2            2.376000      71.129073
                         10       1    1gxz3             2.376000      31.809888
                         10       1    1gy4              2.376000      12.023008
                         10       1    1gy3z             2.376000      31.809888
                         10       1    1gy2z2            2.376000      41.066389
                         10       1    1gyz3             2.376000      31.809888
                         10       1    1gz4              2.376000      12.023008

     RI Auxiliary Basis Set                                    aug-cc-pVQZ-OPTRI

       Number of orbital shell sets:                                          19
       Number of orbital shells:                                              19
       Number of primitive Cartesian functions:                               19
       Number of Cartesian basis functions:                                  124
       Number of spherical basis functions:                                   89
       Norm type:                                                              2

       Normalised Cartesian orbitals:

                        Set   Shell   Orbital            Exponent    Coefficient

                          1       1    1s                0.136770       0.160289

                          2       1    1px               0.139128       0.121118
                          2       1    1py               0.139128       0.121118
                          2       1    1pz               0.139128       0.121118

                          3       1    1dx2              0.318344       0.222064
                          3       1    1dxy              0.318344       0.384627
                          3       1    1dxz              0.318344       0.384627
                          3       1    1dy2              0.318344       0.222064
                          3       1    1dyz              0.318344       0.384627
                          3       1    1dz2              0.318344       0.222064

                          4       1    1px               0.381891       0.427922
                          4       1    1py               0.381891       0.427922
                          4       1    1pz               0.381891       0.427922

                          5       1    1s                0.413887       0.367766

                          6       1    1fx3              0.743064       0.754681
                          6       1    1fx2y             0.743064       1.687518
                          6       1    1fx2z             0.743064       1.687518
                          6       1    1fxy2             0.743064       1.687518
                          6       1    1fxyz             0.743064       2.922867
                          6       1    1fxz2             0.743064       1.687518
                          6       1    1fy3              0.743064       0.754681
                          6       1    1fy2z             0.743064       1.687518
                          6       1    1fyz2             0.743064       1.687518
                          6       1    1fz3              0.743064       0.754681

                          7       1    1dx2              0.997436       1.638545
                          7       1    1dxy              0.997436       2.838043
                          7       1    1dxz              0.997436       2.838043
                          7       1    1dy2              0.997436       1.638545
                          7       1    1dyz              0.997436       2.838043
                          7       1    1dz2              0.997436       1.638545

                          8       1    1px               1.002245       1.429412
                          8       1    1py               1.002245       1.429412
                          8       1    1pz               1.002245       1.429412

                          9       1    1s                1.232046       0.833451

                         10       1    1gx4              1.384231       2.721191
                         10       1    1gx3y             1.384231       7.199594
                         10       1    1gx3z             1.384231       7.199594
                         10       1    1gx2y2            1.384231       9.294636
                         10       1    1gx2yz            1.384231      16.098782
                         10       1    1gx2z2            1.384231       9.294636
                         10       1    1gxy3             1.384231       7.199594
                         10       1    1gxy2z            1.384231      16.098782
                         10       1    1gxyz2            1.384231      16.098782
                         10       1    1gxz3             1.384231       7.199594
                         10       1    1gy4              1.384231       2.721191
                         10       1    1gy3z             1.384231       7.199594
                         10       1    1gy2z2            1.384231       9.294636
                         10       1    1gyz3             1.384231       7.199594
                         10       1    1gz4              1.384231       2.721191

                         11       1    1fx3              1.712357       4.937893
                         11       1    1fx2y             1.712357      11.041464
                         11       1    1fx2z             1.712357      11.041464
                         11       1    1fxy2             1.712357      11.041464
                         11       1    1fxyz             1.712357      19.124376
                         11       1    1fxz2             1.712357      11.041464
                         11       1    1fy3              1.712357       4.937893
                         11       1    1fy2z             1.712357      11.041464
                         11       1    1fyz2             1.712357      11.041464
                         11       1    1fz3              1.712357       4.937893

                         12       1    1hx5              2.682058      18.317479
                         12       1    1hx4y             2.682058      54.952437
                         12       1    1hx4z             2.682058      54.952437
                         12       1    1hx3y2            2.682058      83.941234
                         12       1    1hx3yz            2.682058     145.390483
                         12       1    1hx3z2            2.682058      83.941234
                         12       1    1hx2y3            2.682058      83.941234
                         12       1    1hx2y2z           2.682058     187.698306
                         12       1    1hx2yz2           2.682058     187.698306
                         12       1    1hx2z3            2.682058      83.941234
                         12       1    1hxy4             2.682058      54.952437
                         12       1    1hxy3z            2.682058     145.390483
                         12       1    1hxy2z2           2.682058     187.698306
                         12       1    1hxyz3            2.682058     145.390483
                         12       1    1hxz4             2.682058      54.952437
                         12       1    1hy5              2.682058      18.317479
                         12       1    1hy4z             2.682058      54.952437
                         12       1    1hy3z2            2.682058      83.941234
                         12       1    1hy2z3            2.682058      83.941234
                         12       1    1hyz4             2.682058      54.952437
                         12       1    1hz5              2.682058      18.317479

                         13       1    1dx2              3.320179      13.441325
                         13       1    1dxy              3.320179      23.281058
                         13       1    1dxz              3.320179      23.281058
                         13       1    1dy2              3.320179      13.441325
                         13       1    1dyz              3.320179      23.281058
                         13       1    1dz2              3.320179      13.441325

                         14       1    1px               3.338077       6.431474
                         14       1    1py               3.338077       6.431474
                         14       1    1pz               3.338077       6.431474

                         15       1    1s                4.177405       2.082524

                         16       1    1gx4              5.657813     130.682985
                         16       1    1gx3y             5.657813     345.754679
                         16       1    1gx3z             5.657813     345.754679
                         16       1    1gx2y2            5.657813     446.367371
                         16       1    1gx2yz            5.657813     773.130965
                         16       1    1gx2z2            5.657813     446.367371
                         16       1    1gxy3             5.657813     345.754679
                         16       1    1gxy2z            5.657813     773.130965
                         16       1    1gxyz2            5.657813     773.130965
                         16       1    1gxz3             5.657813     345.754679
                         16       1    1gy4              5.657813     130.682985
                         16       1    1gy3z             5.657813     345.754679
                         16       1    1gy2z2            5.657813     446.367371
                         16       1    1gyz3             5.657813     345.754679
                         16       1    1gz4              5.657813     130.682985

                         17       1    1fx3              8.647045     188.758630
                         17       1    1fx2y             8.647045     422.077129
                         17       1    1fx2z             8.647045     422.077129
                         17       1    1fxy2             8.647045     422.077129
                         17       1    1fxyz             8.647045     731.059032
                         17       1    1fxz2             8.647045     422.077129
                         17       1    1fy3              8.647045     188.758630
                         17       1    1fy2z             8.647045     422.077129
                         17       1    1fyz2             8.647045     422.077129
                         17       1    1fz3              8.647045     188.758630

                         18       1    1px               9.834670      24.825033
                         18       1    1py               9.834670      24.825033
                         18       1    1pz               9.834670      24.825033

                         19       1    1dx2             15.729866     204.492906
                         19       1    1dxy             15.729866     354.192103
                         19       1    1dxz             15.729866     354.192103
                         19       1    1dy2             15.729866     204.492906
                         19       1    1dyz             15.729866     354.192103
                         19       1    1dz2             15.729866     204.492906

       Atomic covalent radius [Angstrom]:                                  0.720

       Atomic van der Waals radius [Angstrom]:                             1.470

     The atoms of this atomic kind are PAW atoms (GAPW):
       Hard Gaussian function radius:                                      1.512
       Rho0 radius:                                                        1.512
       Maximum GTO radius used for PAW projector construction:            24.566

     GAPW Soft Basis Set                                        aug-cc-pVQZ_soft

       Number of orbital shell sets:                                          10
       Number of orbital shells:                                              20
       Number of primitive Cartesian functions:                               16
       Number of Cartesian basis functions:                                  105
       Number of spherical basis functions:                                   80
       Norm type:                                                              2

       Normalised Cartesian orbitals:

                        Set   Shell   Orbital            Exponent    Coefficient

                          1       1    1px               0.065680       0.047395
                          1       1    1py               0.065680       0.047395
                          1       1    1pz               0.065680       0.047395

                          2       1    1s                0.085940       0.113124

                          3       1    1dx2              0.207000       0.104558
                          3       1    1dxy              0.207000       0.181100
                          3       1    1dxz              0.207000       0.181100
                          3       1    1dy2              0.207000       0.104558
                          3       1    1dyz              0.207000       0.181100
                          3       1    1dz2              0.207000       0.104558

                          4       1    1px               1.953000       3.290924
                                                         0.670200       0.000000
                                                         0.216600       0.000000
                          4       1    1py               1.953000       3.290924
                                                         0.670200       0.000000
                                                         0.216600       0.000000
                          4       1    1pz               1.953000       3.290924
                                                         0.670200       0.000000
                                                         0.216600       0.000000

                          4       2    2px               1.953000       1.189876
                                                         0.670200       0.382202
                                                         0.216600       0.051274
                          4       2    2py               1.953000       1.189876
                                                         0.670200       0.382202
                                                         0.216600       0.051274
                          4       2    2pz               1.953000       1.189876
                                                         0.670200       0.382202
                                                         0.216600       0.051274

                          4       3    3px               1.953000       0.000000
                                                         0.670200       0.864362
                                                         0.216600       0.000000
                          4       3    3py               1.953000       0.000000
                                                         0.670200       0.864362
                                                         0.216600       0.000000
                          4       3    3pz               1.953000       0.000000
                                                         0.670200       0.864362
                                                         0.216600       0.000000

                          4       4    4px               1.953000       0.000000
                                                         0.670200       0.000000
                                                         0.216600       0.210627
                          4       4    4py               1.953000       0.000000
                                                         0.670200       0.000000
                                                         0.216600       0.210627
                          4       4    4pz               1.953000       0.000000
                                                         0.670200       0.000000
                                                         0.216600       0.210627

                          5       1    1s                1.843000       0.019335
                                                         0.712400      -0.001114
                                                         0.263700       0.000228

                          5       2    2s                1.843000       1.127338
                                                         0.712400       0.000000
                                                         0.263700       0.000000

                          5       3    3s                1.843000       0.000000
                                                         0.712400       0.552654
                                                         0.263700       0.000000

                          5       4    4s                1.843000       0.336804
                                                         0.712400       0.323309
                                                         0.263700       0.071116

                          5       5    5s                1.843000       0.000000
                                                         0.712400       0.000000
                                                         0.263700       0.262266

                          6       1    1fx3              0.460000       0.256543
                          6       1    1fx2y             0.460000       0.573647
                          6       1    1fx2z             0.460000       0.573647
                          6       1    1fxy2             0.460000       0.573647
                          6       1    1fxyz             0.460000       0.993585
                          6       1    1fxz2             0.460000       0.573647
                          6       1    1fy3              0.460000       0.256543
                          6       1    1fy2z             0.460000       0.573647
                          6       1    1fyz2             0.460000       0.573647
                          6       1    1fz3              0.460000       0.256543

                          7       1    1dx2              1.725000       0.000000
                                                         0.586000       0.000000
                          7       1    1dxy              1.725000       0.000000
                                                         0.586000       0.000000
                          7       1    1dxz              1.725000       0.000000
                                                         0.586000       0.000000
                          7       1    1dy2              1.725000       0.000000
                                                         0.586000       0.000000
                          7       1    1dyz              1.725000       0.000000
                                                         0.586000       0.000000
                          7       1    1dz2              1.725000       0.000000
                                                         0.586000       0.000000

                          7       2    2dx2              1.725000       4.273566
                                                         0.586000       0.000000
                          7       2    2dxy              1.725000       7.402033
                                                         0.586000       0.000000
                          7       2    2dxz              1.725000       7.402033
                                                         0.586000       0.000000
                          7       2    2dy2              1.725000       4.273566
                                                         0.586000       0.000000
                          7       2    2dyz              1.725000       7.402033
                                                         0.586000       0.000000
                          7       2    2dz2              1.725000       4.273566
                                                         0.586000       0.000000

                          7       3    3dx2              1.725000       0.000000
                                                         0.586000       0.645997
                          7       3    3dxy              1.725000       0.000000
                                                         0.586000       1.118899
                          7       3    3dxz              1.725000       0.000000
                                                         0.586000       1.118899
                          7       3    3dy2              1.725000       0.000000
                                                         0.586000       0.645997
                          7       3    3dyz              1.725000       0.000000
                                                         0.586000       1.118899
                          7       3    3dz2              1.725000       0.000000
                                                         0.586000       0.645997

                          8       1    1gx4              0.924000       0.895434
                          8       1    1gx3y             0.924000       2.369094
                          8       1    1gx3z             0.924000       2.369094
                          8       1    1gx2y2            0.924000       3.058488
                          8       1    1gx2yz            0.924000       5.297456
                          8       1    1gx2z2            0.924000       3.058488
                          8       1    1gxy3             0.924000       2.369094
                          8       1    1gxy2z            0.924000       5.297456
                          8       1    1gxyz2            0.924000       5.297456
                          8       1    1gxz3             0.924000       2.369094
                          8       1    1gy4              0.924000       0.895434
                          8       1    1gy3z             0.924000       2.369094
                          8       1    1gy2z2            0.924000       3.058488
                          8       1    1gyz3             0.924000       2.369094
                          8       1    1gz4              0.924000       0.895434

                          9       1    1fx3              3.562000      25.660538
                                                         1.148000       0.000000
                          9       1    1fx2y             3.562000      57.378707
                                                         1.148000       0.000000
                          9       1    1fx2z             3.562000      57.378707
                                                         1.148000       0.000000
                          9       1    1fxy2             3.562000      57.378707
                                                         1.148000       0.000000
                          9       1    1fxyz             3.562000      99.382837
                                                         1.148000       0.000000
                          9       1    1fxz2             3.562000      57.378707
                                                         1.148000       0.000000
                          9       1    1fy3              3.562000      25.660538
                                                         1.148000       0.000000
                          9       1    1fy2z             3.562000      57.378707
                                                         1.148000       0.000000
                          9       1    1fyz2             3.562000      57.378707
                                                         1.148000       0.000000
                          9       1    1fz3              3.562000      25.660538
                                                         1.148000       0.000000

                          9       2    2fx3              3.562000       0.000000
                                                         1.148000       2.008277
                          9       2    2fx2y             3.562000       0.000000
                                                         1.148000       4.490645
                          9       2    2fx2z             3.562000       0.000000
                                                         1.148000       4.490645
                          9       2    2fxy2             3.562000       0.000000
                                                         1.148000       4.490645
                          9       2    2fxyz             3.562000       0.000000
                                                         1.148000       7.778025
                          9       2    2fxz2             3.562000       0.000000
                                                         1.148000       4.490645
                          9       2    2fy3              3.562000       0.000000
                                                         1.148000       2.008277
                          9       2    2fy2z             3.562000       0.000000
                                                         1.148000       4.490645
                          9       2    2fyz2             3.562000       0.000000
                                                         1.148000       4.490645
                          9       2    2fz3              3.562000       0.000000
                                                         1.148000       2.008277

                         10       1    1gx4              2.376000      12.023008
                         10       1    1gx3y             2.376000      31.809888
                         10       1    1gx3z             2.376000      31.809888
                         10       1    1gx2y2            2.376000      41.066389
                         10       1    1gx2yz            2.376000      71.129073
                         10       1    1gx2z2            2.376000      41.066389
                         10       1    1gxy3             2.376000      31.809888
                         10       1    1gxy2z            2.376000      71.129073
                         10       1    1gxyz2            2.376000      71.129073
                         10       1    1gxz3             2.376000      31.809888
                         10       1    1gy4              2.376000      12.023008
                         10       1    1gy3z             2.376000      31.809888
                         10       1    1gy2z2            2.376000      41.066389
                         10       1    1gyz3             2.376000      31.809888
                         10       1    1gz4              2.376000      12.023008

     AE Potential information for                                            ALL

       Description:                                       All-electron potential
                                          Krack, Parrinello, PCCP 2, 2105 (2000)

       Gaussian exponent of the core charge distribution:              10.470541
       Electronic configuration (s p d ...):                           4   5   0

  2. Atomic kind: SI                                    Number of atoms:       1

     Orbital Basis Set                                               aug-cc-pVQZ

       Number of orbital shell sets:                                          10
       Number of orbital shells:                                              22
       Number of primitive Cartesian functions:                               38
       Number of Cartesian basis functions:                                  109
       Number of spherical basis functions:                                   84
       Norm type:                                                              2

       Normalised Cartesian orbitals:

                        Set   Shell   Orbital            Exponent    Coefficient

                          1       1    1px               0.020000       0.010721
                          1       1    1py               0.020000       0.010721
                          1       1    1pz               0.020000       0.010721

                          2       1    1s                0.027500       0.048129

                          3       1    1dx2              0.043500       0.006820
                          3       1    1dxy              0.043500       0.011812
                          3       1    1dxz              0.043500       0.011812
                          3       1    1dy2              0.043500       0.006820
                          3       1    1dyz              0.043500       0.011812
                          3       1    1dz2              0.043500       0.006820

                          4       1    1px            1122.000000       4.148088
                                                       266.000000       5.843796
                                                        85.920000       7.386753
                                                        32.330000       7.988992
                                                        13.370000       6.918150
                                                         5.800000       4.306658
                                                         2.559000       1.750191
                                                         1.124000       0.331903
                                                         0.398800       0.009419
                                                         0.153300      -0.000233
                                                         0.057280       0.000030
                          4       1    1py            1122.000000       4.148088
                                                       266.000000       5.843796
                                                        85.920000       7.386753
                                                        32.330000       7.988992
                                                        13.370000       6.918150
                                                         5.800000       4.306658
                                                         2.559000       1.750191
                                                         1.124000       0.331903
                                                         0.398800       0.009419
                                                         0.153300      -0.000233
                                                         0.057280       0.000030
                          4       1    1pz            1122.000000       4.148088
                                                       266.000000       5.843796
                                                        85.920000       7.386753
                                                        32.330000       7.988992
                                                        13.370000       6.918150
                                                         5.800000       4.306658
                                                         2.559000       1.750191
                                                         1.124000       0.331903
                                                         0.398800       0.009419
                                                         0.153300      -0.000233
                                                         0.057280       0.000030

                          4       2    2px            1122.000000       0.000000
                                                       266.000000       0.000000
                                                        85.920000       0.000000
                                                        32.330000       0.000000
                                                        13.370000       0.000000
                                                         5.800000       0.000000
                                                         2.559000       0.000000
                                                         1.124000       0.000000
                                                         0.398800       0.451735
                                                         0.153300       0.000000
                                                         0.057280       0.000000
                          4       2    2py            1122.000000       0.000000
                                                       266.000000       0.000000
                                                        85.920000       0.000000
                                                        32.330000       0.000000
                                                        13.370000       0.000000
                                                         5.800000       0.000000
                                                         2.559000       0.000000
                                                         1.124000       0.000000
                                                         0.398800       0.451735
                                                         0.153300       0.000000
                                                         0.057280       0.000000
                          4       2    2pz            1122.000000       0.000000
                                                       266.000000       0.000000
                                                        85.920000       0.000000
                                                        32.330000       0.000000
                                                        13.370000       0.000000
                                                         5.800000       0.000000
                                                         2.559000       0.000000
                                                         1.124000       0.000000
                                                         0.398800       0.451735
                                                         0.153300       0.000000
                                                         0.057280       0.000000

                          4       3    3px            1122.000000       0.000000
                                                       266.000000       0.000000
                                                        85.920000       0.000000
                                                        32.330000       0.000000
                                                        13.370000       0.000000
                                                         5.800000       0.000000
                                                         2.559000       0.000000
                                                         1.124000       0.000000
                                                         0.398800       0.000000
                                                         0.153300       0.136731
                                                         0.057280       0.000000
                          4       3    3py            1122.000000       0.000000
                                                       266.000000       0.000000
                                                        85.920000       0.000000
                                                        32.330000       0.000000
                                                        13.370000       0.000000
                                                         5.800000       0.000000
                                                         2.559000       0.000000
                                                         1.124000       0.000000
                                                         0.398800       0.000000
                                                         0.153300       0.136731
                                                         0.057280       0.000000
                          4       3    3pz            1122.000000       0.000000
                                                       266.000000       0.000000
                                                        85.920000       0.000000
                                                        32.330000       0.000000
                                                        13.370000       0.000000
                                                         5.800000       0.000000
                                                         2.559000       0.000000
                                                         1.124000       0.000000
                                                         0.398800       0.000000
                                                         0.153300       0.136731
                                                         0.057280       0.000000

                          4       4    4px            1122.000000      -0.893111
                                                       266.000000      -1.243319
                                                        85.920000      -1.603667
                                                        32.330000      -1.730745
                                                        13.370000      -1.565340
                                                         5.800000      -0.965549
                                                         2.559000      -0.448174
                                                         1.124000      -0.037531
                                                         0.398800       0.131901
                                                         0.153300       0.075294
                                                         0.057280       0.011888
                          4       4    4py            1122.000000      -0.893111
                                                       266.000000      -1.243319
                                                        85.920000      -1.603667
                                                        32.330000      -1.730745
                                                        13.370000      -1.565340
                                                         5.800000      -0.965549
                                                         2.559000      -0.448174
                                                         1.124000      -0.037531
                                                         0.398800       0.131901
                                                         0.153300       0.075294
                                                         0.057280       0.011888
                          4       4    4pz            1122.000000      -0.893111
                                                       266.000000      -1.243319
                                                        85.920000      -1.603667
                                                        32.330000      -1.730745
                                                        13.370000      -1.565340
                                                         5.800000      -0.965549
                                                         2.559000      -0.448174
                                                         1.124000      -0.037531
                                                         0.398800       0.131901
                                                         0.153300       0.075294
                                                         0.057280       0.011888

                          4       5    5px            1122.000000       0.000000
                                                       266.000000       0.000000
                                                        85.920000       0.000000
                                                        32.330000       0.000000
                                                        13.370000       0.000000
                                                         5.800000       0.000000
                                                         2.559000       0.000000
                                                         1.124000       0.000000
                                                         0.398800       0.000000
                                                         0.153300       0.000000
                                                         0.057280       0.039943
                          4       5    5py            1122.000000       0.000000
                                                       266.000000       0.000000
                                                        85.920000       0.000000
                                                        32.330000       0.000000
                                                        13.370000       0.000000
                                                         5.800000       0.000000
                                                         2.559000       0.000000
                                                         1.124000       0.000000
                                                         0.398800       0.000000
                                                         0.153300       0.000000
                                                         0.057280       0.039943
                          4       5    5pz            1122.000000       0.000000
                                                       266.000000       0.000000
                                                        85.920000       0.000000
                                                        32.330000       0.000000
                                                        13.370000       0.000000
                                                         5.800000       0.000000
                                                         2.559000       0.000000
                                                         1.124000       0.000000
                                                         0.398800       0.000000
                                                         0.153300       0.000000
[...]
 CHIMIA 59, 499-503 (2005).
 Ground and excited state density functional calculations with the Gaussian and 
 augmented-plane-wave method.
 https://doi.org/10.2533/000942905777676164

 M. Frigo, S. G. Johnson.
 Proc. IEEE 93, 216-231 (2005).
 The design and implementation of FFTW3.
 https://doi.org/10.1109/JPROC.2004.840301

 R. L. Martin.
 J. Chem. Phys. 118, 4775-4777 (2003).
 Natural transition orbitals.
 https://doi.org/10.1063/1.1558471

 M. Krack, M. Parrinello.
 Phys. Chem. Chem. Phys. 2, 2105-2112 (2000).
 All-electron ab-initio molecular dynamics.
 https://doi.org/10.1039/b001167n

 G. Lippert, J. Hutter, M. Parrinello.
 Theor. Chem. Acc. 103, 124-140 (1999).
 The Gaussian and augmented-plane-wave density functional method for ab initio 
 molecular dynamics simulations.
 https://doi.org/10.1007/s002140050523

 J. P. Perdew, K. Burke, M. Ernzerhof.
 Phys. Rev. Lett. 77, 3865-3868 (1996).
 Generalized gradient approximation made simple.
 https://doi.org/10.1103/PhysRevLett.77.3865


 -------------------------------------------------------------------------------
 -                                                                             -
 -                                T I M I N G                                  -
 -                                                                             -
 -------------------------------------------------------------------------------
 SUBROUTINE                       CALLS  ASD         SELF TIME        TOTAL TIME
                                MAXIMUM       AVERAGE  MAXIMUM  AVERAGE  MAXIMUM
 CP2K                                 1  1.0    0.028    0.047  633.258  633.259
 qs_energies                          1  2.0    0.001    0.001  631.612  631.612
 qs_energies_properties               1  3.0    0.000    0.000  371.096  371.096
 tddfpt                               1  4.0    0.000    0.001  371.096  371.096
 tddfpt_energies                      1  5.0    0.000    0.001  371.016  371.016
 tddfpt_davidson_solver               1  6.0    0.001    0.003  368.983  368.983
 tddfpt_compute_Aop_evects            8  7.0    0.000    0.000  367.257  367.257
 fhxc_kernel                          8  8.0    0.008    0.010  282.978  282.978
 scf_env_do_scf                       1  3.0    0.000    0.000  259.094  259.097
 scf_env_do_scf_inner_loop           71  4.0    0.002    0.005  259.093  259.097
 qs_ks_update_qs_env                 71  5.0    0.000    0.001  224.641  224.687
 rebuild_ks_matrix                   71  6.0    0.000    0.000  224.630  224.676
 qs_ks_build_kohn_sham_matrix        71  7.0    0.011    0.012  224.630  224.676
 integrate_four_center              391  9.8    7.716   17.285  198.001  198.144
 fft_wrap_pw1pw2                   4705 11.0    0.097    0.138  166.342  169.954
 fft_wrap_pw1pw2_250               3313 12.1    5.771    7.229  160.781  163.603
 mp_sync                           2084 11.5  133.119  152.380  133.119  152.380
 integrate_four_center_main         391 10.8    0.700   23.805   11.808  151.751
 integrate_four_center_bin        33664 11.8   11.109  147.626   11.109  147.626
 fft3d_ps                          4705 13.0   51.219   64.472  141.611  145.616
 pw_poisson_solve                   231  9.4    2.642    3.502  132.369  132.929
 tddfpt_apply_coulomb               160  9.0    0.004    0.005  117.269  117.844
 hfx_ks_matrix                       71  8.0    0.003    0.003  116.449  116.496
 mp_alltoall_z22v                  4705 15.0   80.268   85.500   80.268   85.500
 tddfpt_apply_hfx                     8  8.0    0.003    0.004   83.481   83.482
 tddft_hfx_matrix                   320  9.0    0.008    0.010   81.565   81.671
 ps_wavelet_solve                   231 10.4   51.714   59.415   66.081   67.006
 xc_pw_derive                      1389 11.0    0.016    0.020   63.203   63.960
 qs_rho_update_rho_low              233  7.8    0.003    0.003   62.888   62.894
 calculate_rho_elec                 233  8.8    1.133    1.345   61.968   61.972
 x_to_yz                           2154 13.7    5.947    6.971   56.734   58.458
 tddfpt_apply_xc_analytic           160  9.0    0.228    0.301   53.982   54.780
 mp_alltoall_d54                    231 11.4    8.424   50.868    8.424   50.868
 integrate_v_rspace                 231  9.0    0.006    0.008   48.476   48.575
 prepare_gapw_den                   232  8.7    0.006    0.008   47.517   47.822
 density_rs2pw                      233  9.8    0.015    0.018   41.841   45.068
 xc_pw_divergence                   231 10.7    0.009    0.012   42.848   43.643
 yz_to_x                           2087 14.4    3.652    4.435   33.099   36.238
 calc_screening_functions             1 10.0   27.693   29.551   31.358   33.235
 mp_alltoall_d11v                 14348 11.6   26.094   32.947   26.094   32.947
 potential_pw2rs                    231 10.0    0.080    0.089   32.043   32.140
 xc_calc_2nd_deriv_analytical      1120 10.1    1.909    2.065   31.922   32.010
 gaVxcgb_GC                         693  9.7    0.393   31.968    0.393   31.968
 transfer_rs2pw                    1165 10.7    0.032    0.046   26.624   29.333
 transfer_pw2rs                    1156 10.9    0.018    0.023   26.916   27.334
 qs_vxc_create                       71  8.0    0.001    0.001   26.604   26.604
 xc_vxc_pw_create                    71  9.0    0.436    0.515   26.603   26.603
 calculate_xc_2nd_deriv_atom        160  9.0    0.079    3.700    0.378   26.335
 calculate_rho_atom                 696  9.7    5.928   25.784    5.928   25.785
 grid_collocate_task_list           233  9.8   17.905   23.838   17.905   23.838
 mp_waitany                       41790 12.8   20.517   23.166   20.517   23.166
 mp_sum_dv                        22249  8.9   20.355   20.745   20.355   20.745
 put_rho0_on_grid                   232  9.7    1.148    1.432   19.794   20.100
 transfer_rs2pw_250                 466 11.7    6.065    6.619   16.520   19.944
 mp_sum_d                          6709  7.5   17.062   18.500   17.062   18.500
 rs_gather_matrices                 231 10.0    0.024    0.041   15.086   16.455
 grid_integrate_task_list           231 10.0    1.340   16.195    1.340   16.195
 transfer_pw2rs_250                 463 11.7    5.224    5.715   14.993   15.437
 sum_up_and_integrate                71  8.0    0.001    0.001   15.065   15.109
 xc_rho_set_and_dset_create          72 10.0    0.319    0.384   12.269   13.562
 mp_waitall_1                    258054 13.4   10.700   13.184   10.700   13.184
 gspace_mixing                       70  5.0    0.340    0.404   12.657   12.658
 integrate_vhg0_rspace              231  9.4    0.952    1.248   12.533   12.602
 calculate_vxc_atom                  71  8.0    0.043    0.847   10.811   10.811
 mp_alltoall_d45                    232 11.4    5.448    9.852    5.448    9.852
 broyden_mixing                      70  6.0    9.200    9.467    9.373    9.510
 pw_scatter_p                      2385 12.8    7.797    8.020    7.797    8.020
 pw_gather_p                       2320 13.3    6.965    7.889    6.965    7.889
 transfer_pw2rs_30                  231 12.0    3.942    4.566    6.588    7.090
 pw_derive                         2082 11.8    6.123    6.508    6.123    6.508
 powell_optimize                2461201 11.0    6.100    6.312    6.100    6.312
 mp_isendrecv_dv                 118180 12.3    2.171    5.529    2.171    5.529
 cp2k_distribution_to_z_slices      231 10.4    2.225    2.409    5.060    5.361
 transfer_rs2pw_90                  233 11.8    0.938    1.080    3.888    5.342
 transfer_rs2pw_30                  233 11.8    2.208    2.310    5.127    5.237
 fft_wrap_pw1pw2_90                 464 11.9    0.157    0.228    4.217    5.229
 rs_grid_zero                      1158 11.9    4.650    4.973    4.650    4.973
 cp_dbcsr_sm_fm_multiply           1006  8.6    0.020    0.022    4.662    4.764
 transfer_pw2rs_90                  231 12.0    0.980    1.134    4.170    4.633
 integrate_four_center_getP         391 10.8    0.097    0.113    4.422    4.449
 integrate_four_center_dist_KS      391 10.8    0.105    0.118    4.418    4.437
 Vh_1c_gg_integrals                 231  9.4    0.075    3.238    3.739    3.949
 mp_sum_dm                         3585  9.9    3.455    3.869    3.455    3.869
 pw_copy                           3150 11.0    3.578    3.812    3.578    3.812
 calc_pair_dist_radii                 1 10.0    1.252    1.283    3.687    3.811
 mp_sendrecv_dv                   44270 12.8    3.566    3.709    3.566    3.709
 xc_functional_eval                1458 10.9    0.001    0.006    2.301    3.657
 pbe_lda_eval                      1458 11.9    2.300    3.652    2.300    3.652
 pw_poisson_set                     232 10.4    0.008    0.009    3.569    3.617
 mp_sum_l                          5405 10.5    2.016    2.791    2.016    2.791
 pw_copy_to_array                  2320 13.3    2.359    2.779    2.359    2.779
 cp_fm_syevd                        122  7.2    0.001    0.001    2.769    2.776
 dbcsr_multiply_generic            1397 10.3    0.060    0.064    2.334    2.745
 pw_axpy                           2478 10.8    2.427    2.690    2.427    2.690
 cp_fm_redistribute_end             122  8.2    1.363    2.654    1.368    2.659
 integrate_four_center_load         391 10.8    0.001    0.002    1.881    2.657
 dbcsr_complete_redistribute       3372 10.5    0.127    0.228    2.551    2.656
 hfx_load_balance                     1 11.0    0.000    0.000    1.880    2.656
 hfx_load_balance_range               1 12.0    0.000    0.002    1.869    2.646
 qs_scf_new_mos                      71  5.0    0.001    0.001    2.565    2.584
 cp_fm_syevd_base                   122  8.2    1.287    2.580    1.287    2.580
 pw_integral_ab_c1d_c1d_gs          231 10.4    1.691    1.704    2.066    2.334
 copy_dbcsr_to_fm                  1101  9.3    0.014    0.015    2.039    2.182
 eigensolver_symm                    71  6.0    0.002    0.003    2.112    2.115
 cp_dbcsr_sm_fm_multiply_core      1006  9.6    0.003    0.003    1.629    2.018
 pw_copy_from_array                2385 12.8    1.550    1.922    1.550    1.922
 calculate_rho0_atom                696  9.7    1.794    1.917    1.794    1.917
 mp_irecv_dm3                      8358 12.8    0.957    1.881    0.957    1.881
 pw_zero                           2512 10.6    1.690    1.831    1.690    1.831
 copy_fm_to_dbcsr                  2269  9.5    0.010    0.011    1.679    1.783
 multiply_cannon                   1397 11.3    0.134    0.141    1.355    1.768
 mp_isend_dm3                      8358 12.8    0.788    1.638    0.788    1.638
 mp_isend_dv                      96297 13.8    0.861    1.464    0.861    1.464
 multiply_cannon_loop              1397 12.3    0.216    0.224    0.968    1.368
 transfer_pw2rs_10                  231 12.0    0.425    0.473    1.147    1.305
 tddfpt_print_nto_analysis            1  6.0    0.002    0.003    1.191    1.192
 create_qs_kind_set                   1  2.0    0.000    0.000    1.176    1.176
 read_qs_kind                         3  3.0    0.649    0.662    1.176    1.176
 dbcsr_desymmetrize_deep           1102 10.3    0.021    0.029    1.025    1.162
 mp_alltoall_i22                   4474 11.4    0.892    1.100    0.892    1.100
 transfer_rs2pw_10                  233 11.8    0.410    0.445    1.058    1.083
 tddfpt_orthonormalize_psi1_psi       9  6.9    0.019    0.020    1.064    1.065
 cp_dbcsr_plus_fm_fm_t              231  8.4    0.004    0.004    1.028    1.054
 fft_wrap_pw1pw2_30                 464 11.9    0.029    0.034    0.908    1.050
 mp_alltoall_i11v                 11218 11.4    0.955    0.956    0.955    0.956
 calculate_rho_atom_coeff           233  8.8    0.072    0.245    0.918    0.921
 mp_max_i                           729  4.8    0.717    0.920    0.717    0.920
 qs_energies_init_hamiltonians        1  3.0    0.000    0.000    0.912    0.912
 build_core_hamiltonian_matrix        1  4.0    0.000    0.000    0.904    0.904
 overlap_condnum                      1  5.0    0.000    0.000    0.897    0.902
 cp_fm_geeig                         20  7.0    0.001    0.001    0.868    0.869
 arnoldi_conjugate_gradient           5  6.0    0.020    0.024    0.835    0.835
 tddfpt_apply_energy_diff             8  8.0    0.001    0.001    0.797    0.797
 pw_poisson_rebuild                 231 10.4    0.000    0.000    0.770    0.786
 ps_wavelet_create                    1 10.0    0.000    0.000    0.770    0.786
 RS_z_slice_distribution              1 11.0    0.680    0.717    0.770    0.786
 make_m2s                          2794 11.3    0.045    0.051    0.645    0.752
 multiply_cannon_metrocomm3       33528 13.3    0.053    0.056    0.218    0.701
 prepare_dr1dr                     1120 11.1    0.572    0.674    0.572    0.674
 scale_and_distribute               462 11.4    0.585    0.667    0.585    0.667
 tddfpt_compute_residual_vects        7  7.0    0.001    0.001    0.606    0.606
 make_images                       2794 12.3    0.115    0.144    0.507    0.586
 dbcsr_sym_matrix_vector_mult      2872  7.0    0.045    0.049    0.420    0.541
 parser_read_line                136843  4.0    0.048    0.051    0.527    0.536
 parser_read_line_low               152  5.0    0.048    0.211    0.479    0.489
 tddfpt_construct_ground_state_       1  6.0    0.000    0.000    0.480    0.481
 parallel_gemm_fm                  1491  8.2    0.002    0.002    0.449    0.471
 parallel_gemm_fm_gemm             1491  9.2    0.002    0.002    0.447    0.469
 cp_fm_gemm                        1491 10.2    0.445    0.467    0.445    0.467
 xc_2nd_deriv_of_r                  960 10.0    0.001    0.076    0.008    0.449
 broadcast_input_information        152  6.0    0.115    0.125    0.431    0.443
 multiply_cannon_metrocomm1       33528 13.3    0.037    0.039    0.144    0.437
 init_scf_run                         1  3.0    0.000    0.000    0.428    0.429
 update_ks_atom                     231  8.7    0.047    0.198    0.297    0.422
 scf_env_initial_rho_setup            1  4.0    0.000    0.000    0.391    0.392
 qs_init_subsys                       1  2.0    0.007    0.007    0.379    0.379
 hybrid_alltoall_any               3896 13.4    0.030    0.095    0.318    0.374
 fft_wrap_pw1pw2_10                 464 11.9    0.007    0.008    0.339    0.364
 dbcsr_finalize                   11344 11.3    0.040    0.087    0.180    0.356
 qs_env_setup                         1  3.0    0.000    0.000    0.318    0.327
 qs_env_rebuild_pw_env                2  3.5    0.000    0.000    0.317    0.326
 pw_env_rebuild                       1  5.0    0.001    0.001    0.316    0.325
 calculate_dm_sparse                 71  6.0    0.001    0.001    0.290    0.313
 pw_scale                           604  9.5    0.230    0.298    0.230    0.298
 mp_rank_compare                   4705 14.0    0.276    0.297    0.276    0.297
 mp_irecv_dv                      95979 13.8    0.136    0.274    0.136    0.274
 mp_bcast_dm                       2310  9.7    0.251    0.268    0.251    0.268
 cp_fm_trace_a1b1t1_aa            13090  8.0    0.062    0.067    0.265    0.267
 dbcsr_add_d                       4362  7.0    0.004    0.005    0.039    0.254
 dbcsr_add_anytype                 4362  8.0    0.005    0.034    0.035    0.250
 create_kernel_env                    1  6.0    0.000    0.000    0.206    0.242
 xc_prep_2nd_deriv                    1  7.0    0.000    0.000    0.206    0.242
 pw_grid_setup                        4  6.0    0.000    0.000    0.230    0.239
 pw_grid_setup_internal               4  7.0    0.006    0.007    0.230    0.239
 rs_scatter_matrices                233  9.8    0.002    0.013    0.224    0.238
 multiply_cannon_metrocomm4       30734 13.3    0.091    0.095    0.177    0.233
 mp_alltoall_z11v                   464 14.9    0.196    0.219    0.196    0.219
 dbcsr_rep_row_to_rep_col_vec      2872  8.0    0.014    0.021    0.095    0.206
 dbcsr_merge_all                   9487 12.4    0.079    0.139    0.102    0.202
 make_images_sizes                 2794 13.3    0.003    0.003    0.180    0.198
 mp_bcast_i_src                     608  7.0    0.168    0.196    0.168    0.196
 mp_alltoall_i44                   2794 14.3    0.177    0.195    0.177    0.195
 mp_cart_sub                       2205 11.3    0.186    0.188    0.186    0.188
 mp_allgather_i34                  1397 12.3    0.160    0.185    0.160    0.185
 dbcsr_col_vec_to_rep_row          2872  8.0    0.020    0.028    0.110    0.180
 dbcsr_create_new                 40594 11.2    0.130    0.135    0.168    0.175
 multiply_cannon_metrocomm2       29337 13.3    0.088    0.093    0.158    0.172
 mp_cart_create                    1799 10.7    0.152    0.167    0.154    0.170
 mp_bcast_am_src                    152  7.0    0.129    0.146    0.144    0.166
 multiply_cannon_multrec          33528 13.3    0.048    0.155    0.055    0.164
 pw_grid_sort                         4  8.0    0.107    0.109    0.156    0.159
 make_images_data                  2794 13.3    0.028    0.038    0.073    0.154
 yz_to_xz                           231 14.0    0.013    0.014    0.124    0.144
 vxc_of_r_new                       426  9.0    0.000    0.020    0.002    0.134
 cp_fm_redistribute_start           122  8.2    0.089    0.091    0.113    0.123
 mp_bcast_dv                       2994  9.0    0.054    0.122    0.054    0.122
 dbcsr_special_finalize            6985 13.3    0.027    0.029    0.078    0.119
 dbcsr_iterator_start             57253 10.2    0.071    0.096    0.085    0.117
 dbcsr_copy                       15056  8.3    0.051    0.058    0.095    0.109
 dbcsr_sym_matrix_vector_mult_l    2872  8.0    0.014    0.100    0.023    0.108
 cp_fm_cholesky_decompose            21  8.0    0.106    0.107    0.106    0.107
 xz_to_yz                           233 13.8    0.009    0.010    0.093    0.099
 offload_free_buffer                239 10.1    0.036    0.097    0.036    0.097
 cp_fm_triangular_multiply           60  8.0    0.094    0.095    0.094    0.095
 tddfpt_compute_ritz_vects            8  7.0    0.006    0.006    0.089    0.089
 tddfpt_orthogonalize_psi1_psi0       9  6.9    0.000    0.000    0.073    0.087
 cp_fm_triangular_invert             20  8.0    0.084    0.085    0.084    0.085
 scf_post_calculation_gpw             1  3.0    0.000    0.000    0.082    0.082
 write_available_results              1  4.0    0.000    0.000    0.081    0.082
 write_mo_free_results                1  5.0    0.006    0.008    0.081    0.082
 dbcsr_merge_single_wm             6985 14.3    0.035    0.043    0.042    0.081
 mixing_init                          1  5.0    0.078    0.080    0.080    0.081
 compute_max_radius                   1  6.0    0.076    0.078    0.076    0.078
 copy_fm_to_dbcsr_bc               2269 10.5    0.024    0.026    0.070    0.078
 dbcsr_iterator_stop              57253 10.2    0.051    0.063    0.062    0.076
 dbcsr_work_create                17574 12.4    0.032    0.047    0.048    0.074
 dbcsr_destroy                    34783 10.7    0.044    0.046    0.065    0.071
 cp_fm_symm                          71  7.0    0.064    0.068    0.064    0.068
 dbcsr_data_release              196404 12.2    0.052    0.066    0.052    0.066
 -------------------------------------------------------------------------------

 The number of warnings for this run is : 2
 
 -------------------------------------------------------------------------------
  **** **** ******  **  PROGRAM ENDED AT                 2025-04-10 21:56:58.216
 ***** ** ***  *** **   PROGRAM RAN ON                              i04r01c01s01
 **    ****   ******    PROGRAM RAN BY                                   di38fab
 ***** **    ** ** **   PROGRAM PROCESS ID                                145292
  **** **  *******  **  PROGRAM STOPPED IN /hppfs/scratch/04/di38fab/05_MOL/W4-1
                                           1+ALK/sih3f/aug-cc-pVQZ/TDDFT
