SIRIUS 7.5.2, git hash: https://api.github.com/repos/electronic-structure/SIRIUS/git/ref/tags/v7.5.2
 DBCSR| CPU Multiplication driver                                           XSMM (U)
 DBCSR| Multrec recursion limit                                              512 (U)
 DBCSR| Multiplication stack size                                           1000 (D)
 DBCSR| Maximum elements for images                                    UNLIMITED (U)
 DBCSR| Multiplicative factor virtual images                                   1 (U)
 DBCSR| Use multiplication densification                                       T (D)
 DBCSR| Multiplication size stacks                                             3 (U)
 DBCSR| Use memory pool for CPU allocation                                     F (U)
 DBCSR| Number of 3D layers                                               SINGLE (U)
 DBCSR| Use MPI memory allocation                                              F (U)
 DBCSR| Use RMA algorithm                                                      F (U)
 DBCSR| Use Communication thread                                               T (U)
 DBCSR| Communication thread load                                             75 (D)
 DBCSR| MPI: My process id                                                     0
 DBCSR| MPI: Number of processes                                             192
 DBCSR| OMP: Current number of threads                                         4
 DBCSR| OMP: Max number of threads                                             4
 DBCSR| Split modifier for TAS multiplication algorithm                  1.0E+00 (U)


  **** **** ******  **  PROGRAM STARTED AT               2025-03-23 00:15:53.007
 ***** ** ***  *** **   PROGRAM STARTED ON                 n2cn0257.ab2021.local
 **    ****   ******    PROGRAM STARTED BY                              metdyn02
 ***** **    ** ** **   PROGRAM PROCESS ID                                988005
  **** **  *******  **  PROGRAM STARTED IN /scratch/hpc-prf-metdyn/metdyn02_Remi
                                           /10_MOL/05_MOL/aUKBqsEOTmq69kFe5R_nOg
                                           /5k_set_final_qzvp/JIBHAD/TZVP/TDDFT/
                                           RILIM

 CP2K| version string:                 CP2K version 2025.1 (Development Version)
 CP2K| source code revision number:                                  git:f0c7327
 CP2K| cp2kflags: omp libint fftw3 libxc libgrpp elpa parallel scalapack mpi_f08
 CP2K|             cosma xsmm plumed2 spglib sirius libvori libbqb libvdwxc hdf5
 CP2K| is freely available from                            https://www.cp2k.org/
 CP2K| Program compiled at                          Wed Mar 12 18:25:30 CET 2025
 CP2K| Program compiled on                                              n2login1
 CP2K| Program compiled for                                                local
 CP2K| Data directory path    /opt/software/pc2/EB-SW/software/CP2K/2024.1-foss-
 CP2K| Input file name                                                    GW.inp

 GLOBAL| Force Environment number                                              1
 GLOBAL| Basis set file name            /scratch/hpc-prf-metdyn/metdyn02_Remi/BA
 GLOBAL| Potential file name            /pc2/groups/hpc-prf-metdyn/metdyn02_Remi
 GLOBAL| MM Potential file name                                     MM_POTENTIAL
 GLOBAL| Coordinate file name                                      __STD_INPUT__
 GLOBAL| Method name                                                        CP2K
 GLOBAL| Project name                                                       MoS2
 GLOBAL| Run type                                                         ENERGY
 GLOBAL| FFT library                                                       FFTW3
 GLOBAL| Diagonalization library                                            ELPA
 GLOBAL| DGEMM library                                                      BLAS
 GLOBAL| Minimum number of eigenvectors for ELPA usage                        16
 GLOBAL| Orthonormality check for eigenvectors                          DISABLED
 GLOBAL| Matrix multiplication library                                     COSMA
 GLOBAL| All-to-all communication in single precision                          F
 GLOBAL| FFTs using library dependent lengths                                  F
 GLOBAL| Grid backend                                                       AUTO
 GLOBAL| Global print level                                               MEDIUM
 GLOBAL| MPI I/O enabled                                                       T
 GLOBAL| Total number of message passing processes                           192
 GLOBAL| Number of threads for this process                                    4
 GLOBAL| This output is from process                                           0
 GLOBAL| OpenMP stack size per thread (OMP_STACKSIZE)                    default
 GLOBAL| CPU model name                          AMD EPYC 7763 64-Core Processor
 GLOBAL| CPUID                                                              1002

 MEMORY| system memory details [Kb]
 MEMORY|                        rank 0           min           max       average
 MEMORY| MemTotal            263899260     263899260     263899264     263899261
 MEMORY| MemFree             243135764     241947180     244101176     242988709
 MEMORY| Buffers                183280         57664        295836        187421
 MEMORY| Cached                6542716       6321544       7973432       6979615
 MEMORY| Slab                  2762648       2160904       2762648       2432728
 MEMORY| SReclaimable           930196        348924        930196        577784
 MEMORY| MemLikelyFree       250791956     250533324     250984576     250733530


 *** Fundamental physical constants (SI units) ***

 *** Literature: B. J. Mohr and B. N. Taylor,
 ***             CODATA recommended values of the fundamental physical
 ***             constants: 2006, Web Version 5.1
 ***             http://physics.nist.gov/constants

 Speed of light in vacuum [m/s]                             2.99792458000000E+08
 Magnetic constant or permeability of vacuum [N/A**2]       1.25663706143592E-06
 Electric constant or permittivity of vacuum [F/m]          8.85418781762039E-12
 Planck constant (h) [J*s]                                  6.62606896000000E-34
 Planck constant (h-bar) [J*s]                              1.05457162825177E-34
 Elementary charge [C]                                      1.60217648700000E-19
 Electron mass [kg]                                         9.10938215000000E-31
 Electron g factor [ ]                                     -2.00231930436220E+00
 Proton mass [kg]                                           1.67262163700000E-27
 Fine-structure constant                                    7.29735253760000E-03
 Rydberg constant [1/m]                                     1.09737315685270E+07
 Avogadro constant [1/mol]                                  6.02214179000000E+23
 Boltzmann constant [J/K]                                   1.38065040000000E-23
 Atomic mass unit [kg]                                      1.66053878200000E-27
 Bohr radius [m]                                            5.29177208590000E-11

 *** Conversion factors ***

 [u] -> [a.u.]                                              1.82288848426455E+03
 [Angstrom] -> [Bohr] = [a.u.]                              1.88972613288564E+00
 [a.u.] = [Bohr] -> [Angstrom]                              5.29177208590000E-01
 [a.u.] -> [s]                                              2.41888432650478E-17
 [a.u.] -> [fs]                                             2.41888432650478E-02
 [a.u.] -> [J]                                              4.35974393937059E-18
 [a.u.] -> [N]                                              8.23872205491840E-08
 [a.u.] -> [K]                                              3.15774647902944E+05
 [a.u.] -> [kJ/mol]                                         2.62549961709828E+03
 [a.u.] -> [kcal/mol]                                       6.27509468713739E+02
 [a.u.] -> [Pa]                                             2.94210107994716E+13
 [a.u.] -> [bar]                                            2.94210107994716E+08
 [a.u.] -> [atm]                                            2.90362800883016E+08
 [a.u.] -> [eV]                                             2.72113838565563E+01
 [a.u.] -> [Hz]                                             6.57968392072181E+15
 [a.u.] -> [1/cm] (wave numbers)                            2.19474631370540E+05
 [a.u./Bohr**2] -> [1/cm]                                   5.14048714338585E+03
 

 CELL_TOP| Volume [angstrom^3]:                                     27000.000000
 CELL_TOP| Vector a [angstrom    30.000     0.000     0.000   |a| =    30.000000
 CELL_TOP| Vector b [angstrom     0.000    30.000     0.000   |b| =    30.000000
 CELL_TOP| Vector c [angstrom     0.000     0.000    30.000   |c| =    30.000000
 CELL_TOP| Angle (b,c), alpha [degree]:                                90.000000
 CELL_TOP| Angle (a,c), beta  [degree]:                                90.000000
 CELL_TOP| Angle (a,b), gamma [degree]:                                90.000000
 CELL_TOP| Numerically orthorhombic:                                         YES
 CELL_TOP| Periodicity                                                      NONE

 GENERATE|  Preliminary Number of Bonds generated:                             0
 GENERATE|  Achieved consistency in connectivity generation.

 CELL| Volume [angstrom^3]:                                         27000.000000
 CELL| Vector a [angstrom]:      30.000     0.000     0.000   |a| =    30.000000
 CELL| Vector b [angstrom]:       0.000    30.000     0.000   |b| =    30.000000
 CELL| Vector c [angstrom]:       0.000     0.000    30.000   |c| =    30.000000
 CELL| Angle (b,c), alpha [degree]:                                    90.000000
 CELL| Angle (a,c), beta  [degree]:                                    90.000000
 CELL| Angle (a,b), gamma [degree]:                                    90.000000
 CELL| Numerically orthorhombic:                                             YES
 CELL| Periodicity                                                          NONE

 CELL_REF| Volume [angstrom^3]:                                     27000.000000
 CELL_REF| Vector a [angstrom    30.000     0.000     0.000   |a| =    30.000000
 CELL_REF| Vector b [angstrom     0.000    30.000     0.000   |b| =    30.000000
 CELL_REF| Vector c [angstrom     0.000     0.000    30.000   |c| =    30.000000
 CELL_REF| Angle (b,c), alpha [degree]:                                90.000000
 CELL_REF| Angle (a,c), beta  [degree]:                                90.000000
 CELL_REF| Angle (a,b), gamma [degree]:                                90.000000
 CELL_REF| Numerically orthorhombic:                                         YES
 CELL_REF| Periodicity                                                      NONE

 *******************************************************************************
 *******************************************************************************
 **                                                                           **
 **     #####                         ##              ##                      **
 **    ##   ##            ##          ##              ##                      **
 **   ##     ##                       ##            ######                    **
 **   ##     ##  ##   ##  ##   #####  ##  ##   ####   ##    #####    #####    **
 **   ##     ##  ##   ##  ##  ##      ## ##   ##      ##   ##   ##  ##   ##   **
 **   ##  ## ##  ##   ##  ##  ##      ####     ###    ##   ######   ######    **
 **    ##  ###   ##   ##  ##  ##      ## ##      ##   ##   ##       ##        **
 **     #######   #####   ##   #####  ##  ##  ####    ##    #####   ##        **
 **           ##                                                    ##        **
 **                                                                           **
 **                                                ... make the atoms dance   **
 **                                                                           **
 **            Copyright (C) by CP2K developers group (2000-2025)             **
 **                      J. Chem. Phys. 152, 194103 (2020)                    **
 **                                                                           **
 *******************************************************************************

 DFT| Spin restricted Kohn-Sham (RKS) calculation                            RKS
 DFT| Multiplicity                                                             1
 DFT| Number of spin states                                                    1
 DFT| Charge                                                                   0
 DFT| Self-interaction correction (SIC)                                       NO
 DFT| Cutoffs: density                                              1.000000E-10
 DFT|          gradient                                             1.000000E-10
 DFT|          tau                                                  1.000000E-10
 DFT|          cutoff_smoothing_range                               0.000000E+00
 DFT| XC density smoothing                                                  NONE
 DFT| XC derivatives                                                          PW

 FUNCTIONAL| PBE:
 FUNCTIONAL| J.P.Perdew, K.Burke, M.Ernzerhof, Phys. Rev. Letter, vol. 77, n 18,
 FUNCTIONAL|  pp. 3865-3868, (1996)sx=0.750sc=1.000{spin unpolarized}           


 QS| Method:                                                                GAPW
 QS| Density plane wave grid type                        NON-SPHERICAL FULLSPACE
 QS| Number of grid levels:                                                    4
 QS| Density cutoff [a.u.]:                                                250.0
 QS| Multi grid cutoff [a.u.]: 1) grid level                               250.0
 QS|                           2) grid level                                83.3
 QS|                           3) grid level                                27.8
 QS|                           4) grid level                                 9.3
 QS| Grid level progression factor:                                          3.0
 QS| Relative density cutoff [a.u.]:                                        50.0
 QS| Interaction thresholds: eps_pgf_orb:                                1.0E-12
 QS|                         eps_filter_matrix:                          0.0E+00
 QS|                         eps_core_charge:                            1.0E-14
 QS|                         eps_rho_gspace:                             1.0E-12
 QS|                         eps_rho_rspace:                             1.0E-12
 QS|                         eps_gvg_rspace:                             1.0E-06
 QS|                         eps_ppl:                                    1.0E-02
 QS|                         eps_ppnl:                                   1.0E-08
 QS| GAPW|      One center basis from orbital basis primitives
 QS| GAPW|                   eps_fit:                                    1.0E-04
 QS| GAPW|                   eps_iso:                                    1.0E-12
 QS| GAPW|                   eps_svd:                                    1.0E-08
 QS| GAPW|                   eps_cpc:                                    1.0E-12
 QS| GAPW|   atom-r-grid: quadrature:                                     GC_LOG
 QS| GAPW|      atom-s-grid:  max l :                                          8
 QS| GAPW|      max_l_rho0 :                                                   2


 ATOMIC KIND INFORMATION

  1. Atomic kind: N                                     Number of atoms:       3

     Orbital Basis Set                                        aug-TZVP-MOLOPT-ae

       Number of orbital shell sets:                                           2
       Number of orbital shells:                                              16
       Number of primitive Cartesian functions:                               13
       Number of Cartesian basis functions:                                   71
       Number of spherical basis functions:                                   56
       Norm type:                                                              2

       Normalised Cartesian orbitals:

                        Set   Shell   Orbital            Exponent    Coefficient

                          1       1    1s                0.045000       0.000000
                                                         0.113512       0.014500
                                                         0.322032       0.036074
                                                         0.930550      -0.061635
                                                         2.987378       0.535699
                                                         8.608625       2.378505
                                                        49.270190       0.802518

                          1       2    2s                0.045000       0.000000
                                                         0.113512       0.032692
                                                         0.322032       0.082974
                                                         0.930550       0.396674
                                                         2.987378       0.054918
                                                         8.608625      -0.061481
                                                        49.270190      -0.622920

                          1       3    3s                0.045000       0.000000
                                                         0.113512       0.047996
                                                         0.322032       0.306069
                                                         0.930550      -0.408076
                                                         2.987378      -0.229943
                                                         8.608625      -0.870010
                                                        49.270190      -0.366977

                          1       4    4s                0.045000       0.000000
                                                         0.113512       0.171213
                                                         0.322032      -0.186943
                                                         0.930550      -0.188982
                                                         2.987378       0.637930
                                                         8.608625      -0.961511
                                                        49.270190      -7.166333

                          1       5    5s                0.045000       0.096440
                                                         0.113512      -0.064027
                                                         0.322032      -0.041902
                                                         0.930550       0.111692
                                                         2.987378       0.000000
                                                         8.608625       0.000000
                                                        49.270190       0.000000

                          1       6    2px               0.045000       0.000000
                                                         0.113512       0.006367
                                                         0.322032       0.040684
                                                         0.930550       0.811118
                                                         2.987378       1.750760
                                                         8.608625       1.288759
                                                        49.270190      12.161855
                          1       6    2py               0.045000       0.000000
                                                         0.113512       0.006367
                                                         0.322032       0.040684
                                                         0.930550       0.811118
                                                         2.987378       1.750760
                                                         8.608625       1.288759
                                                        49.270190      12.161855
                          1       6    2pz               0.045000       0.000000
                                                         0.113512       0.006367
                                                         0.322032       0.040684
                                                         0.930550       0.811118
                                                         2.987378       1.750760
                                                         8.608625       1.288759
                                                        49.270190      12.161855

                          1       7    3px               0.045000       0.000000
                                                         0.113512       0.011134
                                                         0.322032       0.344073
                                                         0.930550      -0.153789
                                                         2.987378      -0.764833
                                                         8.608625       0.375399
                                                        49.270190     -28.403920
                          1       7    3py               0.045000       0.000000
                                                         0.113512       0.011134
                                                         0.322032       0.344073
                                                         0.930550      -0.153789
                                                         2.987378      -0.764833
                                                         8.608625       0.375399
                                                        49.270190     -28.403920
                          1       7    3pz               0.045000       0.000000
                                                         0.113512       0.011134
                                                         0.322032       0.344073
                                                         0.930550      -0.153789
                                                         2.987378      -0.764833
                                                         8.608625       0.375399
                                                        49.270190     -28.403920

                          1       8    4px               0.045000       0.000000
                                                         0.113512       0.104427
                                                         0.322032      -0.047567
                                                         0.930550      -0.121777
                                                         2.987378      -0.049280
                                                         8.608625      -0.402261
                                                        49.270190       8.328837
                          1       8    4py               0.045000       0.000000
                                                         0.113512       0.104427
                                                         0.322032      -0.047567
                                                         0.930550      -0.121777
                                                         2.987378      -0.049280
                                                         8.608625      -0.402261
                                                        49.270190       8.328837
                          1       8    4pz               0.045000       0.000000
                                                         0.113512       0.104427
                                                         0.322032      -0.047567
                                                         0.930550      -0.121777
                                                         2.987378      -0.049280
                                                         8.608625      -0.402261
                                                        49.270190       8.328837

                          1       9    5px               0.045000       0.002493
                                                         0.113512      -0.112828
                                                         0.322032       0.052724
                                                         0.930550       0.295283
                                                         2.987378       0.000000
                                                         8.608625       0.000000
                                                        49.270190       0.000000
                          1       9    5py               0.045000       0.002493
                                                         0.113512      -0.112828
                                                         0.322032       0.052724
                                                         0.930550       0.295283
                                                         2.987378       0.000000
                                                         8.608625       0.000000
                                                        49.270190       0.000000
                          1       9    5pz               0.045000       0.002493
                                                         0.113512      -0.112828
                                                         0.322032       0.052724
                                                         0.930550       0.295283
                                                         2.987378       0.000000
                                                         8.608625       0.000000
                                                        49.270190       0.000000

                          1      10    3dx2              0.045000       0.000000
                                                         0.113512       0.008426
                                                         0.322032       0.004138
                                                         0.930550       0.975526
                                                         2.987378       4.861216
                                                         8.608625     -15.504622
                                                        49.270190     -47.156995
                          1      10    3dxy              0.045000       0.000000
                                                         0.113512       0.014594
                                                         0.322032       0.007167
                                                         0.930550       1.689661
                                                         2.987378       8.419873
                                                         8.608625     -26.854794
                                                        49.270190     -81.678311
                          1      10    3dxz              0.045000       0.000000
                                                         0.113512       0.014594
                                                         0.322032       0.007167
                                                         0.930550       1.689661
                                                         2.987378       8.419873
                                                         8.608625     -26.854794
                                                        49.270190     -81.678311
                          1      10    3dy2              0.045000       0.000000
                                                         0.113512       0.008426
                                                         0.322032       0.004138
                                                         0.930550       0.975526
                                                         2.987378       4.861216
                                                         8.608625     -15.504622
                                                        49.270190     -47.156995
                          1      10    3dyz              0.045000       0.000000
                                                         0.113512       0.014594
                                                         0.322032       0.007167
                                                         0.930550       1.689661
                                                         2.987378       8.419873
                                                         8.608625     -26.854794
                                                        49.270190     -81.678311
                          1      10    3dz2              0.045000       0.000000
                                                         0.113512       0.008426
                                                         0.322032       0.004138
                                                         0.930550       0.975526
                                                         2.987378       4.861216
                                                         8.608625     -15.504622
                                                        49.270190     -47.156995

                          1      11    4dx2              0.045000       0.000000
                                                         0.113512      -0.007657
                                                         0.322032       0.207542
                                                         0.930550       0.469670
                                                         2.987378      -3.348764
                                                         8.608625      17.703387
                                                        49.270190      69.517765
                          1      11    4dxy              0.045000       0.000000
                                                         0.113512      -0.013263
                                                         0.322032       0.359472
                                                         0.930550       0.813493
                                                         2.987378      -5.800229
                                                         8.608625      30.663165
                                                        49.270190     120.408301
                          1      11    4dxz              0.045000       0.000000
                                                         0.113512      -0.013263
                                                         0.322032       0.359472
                                                         0.930550       0.813493
                                                         2.987378      -5.800229
                                                         8.608625      30.663165
                                                        49.270190     120.408301
                          1      11    4dy2              0.045000       0.000000
                                                         0.113512      -0.007657
                                                         0.322032       0.207542
                                                         0.930550       0.469670
                                                         2.987378      -3.348764
                                                         8.608625      17.703387
                                                        49.270190      69.517765
                          1      11    4dyz              0.045000       0.000000
                                                         0.113512      -0.013263
                                                         0.322032       0.359472
                                                         0.930550       0.813493
                                                         2.987378      -5.800229
                                                         8.608625      30.663165
                                                        49.270190     120.408301
                          1      11    4dz2              0.045000       0.000000
                                                         0.113512      -0.007657
                                                         0.322032       0.207542
                                                         0.930550       0.469670
                                                         2.987378      -3.348764
                                                         8.608625      17.703387
                                                        49.270190      69.517765

                          1      12    5dx2              0.045000      -0.000996
                                                         0.113512       0.002353
                                                         0.322032       0.164897
                                                         0.930550       0.509235
                                                         2.987378       0.000000
                                                         8.608625       0.000000
                                                        49.270190       0.000000
                          1      12    5dxy              0.045000      -0.001726
                                                         0.113512       0.004075
                                                         0.322032       0.285610
                                                         0.930550       0.882020
                                                         2.987378       0.000000
                                                         8.608625       0.000000
                                                        49.270190       0.000000
                          1      12    5dxz              0.045000      -0.001726
                                                         0.113512       0.004075
                                                         0.322032       0.285610
                                                         0.930550       0.882020
                                                         2.987378       0.000000
                                                         8.608625       0.000000
                                                        49.270190       0.000000
                          1      12    5dy2              0.045000      -0.000996
                                                         0.113512       0.002353
                                                         0.322032       0.164897
                                                         0.930550       0.509235
                                                         2.987378       0.000000
                                                         8.608625       0.000000
                                                        49.270190       0.000000
                          1      12    5dyz              0.045000      -0.001726
                                                         0.113512       0.004075
                                                         0.322032       0.285610
                                                         0.930550       0.882020
                                                         2.987378       0.000000
                                                         8.608625       0.000000
                                                        49.270190       0.000000
                          1      12    5dz2              0.045000      -0.000996
                                                         0.113512       0.002353
                                                         0.322032       0.164897
                                                         0.930550       0.509235
                                                         2.987378       0.000000
                                                         8.608625       0.000000
                                                        49.270190       0.000000

                          1      13    4fx3              0.045000       0.000000
                                                         0.113512       0.000350
                                                         0.322032       0.026408
                                                         0.930550       1.022795
                                                         2.987378       1.277764
                                                         8.608625      -7.108652
                                                        49.270190     240.939937
                          1      13    4fx2y             0.045000       0.000000
                                                         0.113512       0.000782
                                                         0.322032       0.059050
                                                         0.930550       2.287038
                                                         2.987378       2.857166
                                                         8.608625     -15.895429
                                                        49.270190     538.758077
                          1      13    4fx2z             0.045000       0.000000
                                                         0.113512       0.000782
                                                         0.322032       0.059050
                                                         0.930550       2.287038
                                                         2.987378       2.857166
                                                         8.608625     -15.895429
                                                        49.270190     538.758077
                          1      13    4fxy2             0.045000       0.000000
                                                         0.113512       0.000782
                                                         0.322032       0.059050
                                                         0.930550       2.287038
                                                         2.987378       2.857166
                                                         8.608625     -15.895429
                                                        49.270190     538.758077
                          1      13    4fxyz             0.045000       0.000000
                                                         0.113512       0.001354
                                                         0.322032       0.102278
                                                         0.930550       3.961267
                                                         2.987378       4.948757
                                                         8.608625     -27.531691
                                                        49.270190     933.156362
                          1      13    4fxz2             0.045000       0.000000
                                                         0.113512       0.000782
                                                         0.322032       0.059050
                                                         0.930550       2.287038
                                                         2.987378       2.857166
                                                         8.608625     -15.895429
                                                        49.270190     538.758077
                          1      13    4fy3              0.045000       0.000000
                                                         0.113512       0.000350
                                                         0.322032       0.026408
                                                         0.930550       1.022795
                                                         2.987378       1.277764
                                                         8.608625      -7.108652
                                                        49.270190     240.939937
                          1      13    4fy2z             0.045000       0.000000
                                                         0.113512       0.000782
                                                         0.322032       0.059050
                                                         0.930550       2.287038
                                                         2.987378       2.857166
                                                         8.608625     -15.895429
                                                        49.270190     538.758077
                          1      13    4fyz2             0.045000       0.000000
                                                         0.113512       0.000782
                                                         0.322032       0.059050
                                                         0.930550       2.287038
                                                         2.987378       2.857166
                                                         8.608625     -15.895429
                                                        49.270190     538.758077
                          1      13    4fz3              0.045000       0.000000
                                                         0.113512       0.000350
                                                         0.322032       0.026408
                                                         0.930550       1.022795
                                                         2.987378       1.277764
                                                         8.608625      -7.108652
                                                        49.270190     240.939937

                          1      14    5fx3              0.045000       0.000031
                                                         0.113512       0.000543
                                                         0.322032       0.086041
                                                         0.930550       0.419256
                                                         2.987378       0.000000
                                                         8.608625       0.000000
                                                        49.270190       0.000000
                          1      14    5fx2y             0.045000       0.000070
                                                         0.113512       0.001214
                                                         0.322032       0.192393
                                                         0.930550       0.937485
                                                         2.987378       0.000000
                                                         8.608625       0.000000
                                                        49.270190       0.000000
                          1      14    5fx2z             0.045000       0.000070
                                                         0.113512       0.001214
                                                         0.322032       0.192393
                                                         0.930550       0.937485
                                                         2.987378       0.000000
                                                         8.608625       0.000000
                                                        49.270190       0.000000
                          1      14    5fxy2             0.045000       0.000070
                                                         0.113512       0.001214
                                                         0.322032       0.192393
                                                         0.930550       0.937485
                                                         2.987378       0.000000
                                                         8.608625       0.000000
                                                        49.270190       0.000000
                          1      14    5fxyz             0.045000       0.000121
                                                         0.113512       0.002103
                                                         0.322032       0.333234
                                                         0.930550       1.623771
                                                         2.987378       0.000000
                                                         8.608625       0.000000
                                                        49.270190       0.000000
                          1      14    5fxz2             0.045000       0.000070
                                                         0.113512       0.001214
                                                         0.322032       0.192393
                                                         0.930550       0.937485
                                                         2.987378       0.000000
                                                         8.608625       0.000000
                                                        49.270190       0.000000
                          1      14    5fy3              0.045000       0.000031
                                                         0.113512       0.000543
                                                         0.322032       0.086041
                                                         0.930550       0.419256
                                                         2.987378       0.000000
                                                         8.608625       0.000000
                                                        49.270190       0.000000
                          1      14    5fy2z             0.045000       0.000070
                                                         0.113512       0.001214
                                                         0.322032       0.192393
                                                         0.930550       0.937485
                                                         2.987378       0.000000
                                                         8.608625       0.000000
                                                        49.270190       0.000000
                          1      14    5fyz2             0.045000       0.000070
                                                         0.113512       0.001214
                                                         0.322032       0.192393
                                                         0.930550       0.937485
                                                         2.987378       0.000000
                                                         8.608625       0.000000
                                                        49.270190       0.000000
                          1      14    5fz3              0.045000       0.000031
                                                         0.113512       0.000543
                                                         0.322032       0.086041
                                                         0.930550       0.419256
                                                         2.987378       0.000000
                                                         8.608625       0.000000
                                                        49.270190       0.000000

                          1      15    5gx4              0.045000       0.000051
                                                         0.113512       0.002105
                                                         0.322032       0.008605
                                                         0.930550       0.058205
                                                         2.987378       0.000000
                                                         8.608625       0.000000
                                                        49.270190       0.000000
                          1      15    5gx3y             0.045000       0.000134
                                                         0.113512       0.005569
                                                         0.322032       0.022768
                                                         0.930550       0.153995
                                                         2.987378       0.000000
                                                         8.608625       0.000000
                                                        49.270190       0.000000
                          1      15    5gx3z             0.045000       0.000134
                                                         0.113512       0.005569
                                                         0.322032       0.022768
                                                         0.930550       0.153995
                                                         2.987378       0.000000
                                                         8.608625       0.000000
                                                        49.270190       0.000000
                          1      15    5gx2y2            0.045000       0.000173
                                                         0.113512       0.007189
                                                         0.322032       0.029393
                                                         0.930550       0.198807
                                                         2.987378       0.000000
                                                         8.608625       0.000000
                                                        49.270190       0.000000
                          1      15    5gx2yz            0.045000       0.000300
                                                         0.113512       0.012452
                                                         0.322032       0.050910
                                                         0.930550       0.344344
                                                         2.987378       0.000000
                                                         8.608625       0.000000
                                                        49.270190       0.000000
                          1      15    5gx2z2            0.045000       0.000173
                                                         0.113512       0.007189
                                                         0.322032       0.029393
                                                         0.930550       0.198807
                                                         2.987378       0.000000
                                                         8.608625       0.000000
                                                        49.270190       0.000000
                          1      15    5gxy3             0.045000       0.000134
                                                         0.113512       0.005569
                                                         0.322032       0.022768
                                                         0.930550       0.153995
                                                         2.987378       0.000000
                                                         8.608625       0.000000
                                                        49.270190       0.000000
                          1      15    5gxy2z            0.045000       0.000300
                                                         0.113512       0.012452
                                                         0.322032       0.050910
                                                         0.930550       0.344344
                                                         2.987378       0.000000
                                                         8.608625       0.000000
                                                        49.270190       0.000000
                          1      15    5gxyz2            0.045000       0.000300
                                                         0.113512       0.012452
                                                         0.322032       0.050910
                                                         0.930550       0.344344
                                                         2.987378       0.000000
                                                         8.608625       0.000000
                                                        49.270190       0.000000
                          1      15    5gxz3             0.045000       0.000134
                                                         0.113512       0.005569
                                                         0.322032       0.022768
                                                         0.930550       0.153995
                                                         2.987378       0.000000
                                                         8.608625       0.000000
                                                        49.270190       0.000000
                          1      15    5gy4              0.045000       0.000051
                                                         0.113512       0.002105
                                                         0.322032       0.008605
                                                         0.930550       0.058205
                                                         2.987378       0.000000
                                                         8.608625       0.000000
                                                        49.270190       0.000000
                          1      15    5gy3z             0.045000       0.000134
                                                         0.113512       0.005569
                                                         0.322032       0.022768
                                                         0.930550       0.153995
                                                         2.987378       0.000000
                                                         8.608625       0.000000
                                                        49.270190       0.000000
                          1      15    5gy2z2            0.045000       0.000173
                                                         0.113512       0.007189
                                                         0.322032       0.029393
                                                         0.930550       0.198807
                                                         2.987378       0.000000
                                                         8.608625       0.000000
                                                        49.270190       0.000000
                          1      15    5gyz3             0.045000       0.000134
                                                         0.113512       0.005569
                                                         0.322032       0.022768
                                                         0.930550       0.153995
                                                         2.987378       0.000000
                                                         8.608625       0.000000
                                                        49.270190       0.000000
                          1      15    5gz4              0.045000       0.000051
                                                         0.113512       0.002105
                                                         0.322032       0.008605
                                                         0.930550       0.058205
                                                         2.987378       0.000000
                                                         8.608625       0.000000
                                                        49.270190       0.000000

                          2       1    1s            19730.758242       0.654856
                                                      2958.006020       1.769548
                                                       673.387518       2.322723
                                                       190.675174       4.547417
                                                        62.366448       3.527190
                                                        22.833858       5.352733

     RI Auxiliary Basis Set             RI_aug-TZVP-MOLOPT-ae_N_RI_112_s_p_d_f_g

       Number of orbital shell sets:                                          26
       Number of orbital shells:                                              26
       Number of primitive Cartesian functions:                               26
       Number of Cartesian basis functions:                                  152
       Number of spherical basis functions:                                  112
       Norm type:                                                              2

       Normalised Cartesian orbitals:

                        Set   Shell   Orbital            Exponent    Coefficient

                          1       1    1s                0.260514       0.259887

                          2       1   14dx2              0.292377       0.191341
                          2       1   14dxy              0.292377       0.331413
                          2       1   14dxz              0.292377       0.331413
                          2       1   14dy2              0.292377       0.191341
                          2       1   14dyz              0.292377       0.331413
                          2       1   14dz2              0.292377       0.191341

                          3       1    8px               0.339061       0.368797
                          3       1    8py               0.339061       0.368797
                          3       1    8pz               0.339061       0.368797

                          4       1   24gx4              0.490960       0.157330
                          4       1   24gx3y             0.490960       0.416256
                          4       1   24gx3z             0.490960       0.416256
                          4       1   24gx2y2            0.490960       0.537384
                          4       1   24gx2yz            0.490960       0.930777
                          4       1   24gx2z2            0.490960       0.537384
                          4       1   24gxy3             0.490960       0.416256
                          4       1   24gxy2z            0.490960       0.930777
                          4       1   24gxyz2            0.490960       0.930777
                          4       1   24gxz3             0.490960       0.416256
                          4       1   24gy4              0.490960       0.157330
                          4       1   24gy3z             0.490960       0.416256
                          4       1   24gy2z2            0.490960       0.537384
                          4       1   24gyz3             0.490960       0.416256
                          4       1   24gz4              0.490960       0.157330

                          5       1   15dx2              0.512054       0.510166
                          5       1   15dxy              0.512054       0.883634
                          5       1   15dxz              0.512054       0.883634
                          5       1   15dy2              0.512054       0.510166
                          5       1   15dyz              0.512054       0.883634
                          5       1   15dz2              0.512054       0.510166

                          6       1   20fx3              0.544013       0.374175
                          6       1   20fx2y             0.544013       0.836680
                          6       1   20fx2z             0.544013       0.836680
                          6       1   20fxy2             0.544013       0.836680
                          6       1   20fxyz             0.544013       1.449173
                          6       1   20fxz2             0.544013       0.836680
                          6       1   20fy3              0.544013       0.374175
                          6       1   20fy2z             0.544013       0.836680
                          6       1   20fyz2             0.544013       0.836680
                          6       1   20fz3              0.544013       0.374175

                          7       1    9px               0.595640       0.745882
                          7       1    9py               0.595640       0.745882
                          7       1    9pz               0.595640       0.745882

                          8       1    2s                0.714912       0.554115

                          9       1   26hx5              0.718673       0.253554
                          9       1   26hx4y             0.718673       0.760662
                          9       1   26hx4z             0.718673       0.760662
                          9       1   26hx3y2            0.718673       1.161930
                          9       1   26hx3yz            0.718673       2.012521
                          9       1   26hx3z2            0.718673       1.161930
                          9       1   26hx2y3            0.718673       1.161930
                          9       1   26hx2y2z           0.718673       2.598154
                          9       1   26hx2yz2           0.718673       2.598154
                          9       1   26hx2z3            0.718673       1.161930
                          9       1   26hxy4             0.718673       0.760662
                          9       1   26hxy3z            0.718673       2.012521
                          9       1   26hxy2z2           0.718673       2.598154
                          9       1   26hxyz3            0.718673       2.012521
                          9       1   26hxz4             0.718673       0.760662
                          9       1   26hy5              0.718673       0.253554
                          9       1   26hy4z             0.718673       0.760662
                          9       1   26hy3z2            0.718673       1.161930
                          9       1   26hy2z3            0.718673       1.161930
                          9       1   26hyz4             0.718673       0.760662
                          9       1   26hz5              0.718673       0.253554

                         10       1   16dx2              0.937774       1.470893
                         10       1   16dxy              0.937774       2.547662
                         10       1   16dxz              0.937774       2.547662
                         10       1   16dy2              0.937774       1.470893
                         10       1   16dyz              0.937774       2.547662
                         10       1   16dz2              0.937774       1.470893

                         11       1   21fx3              1.254079       2.450110
                         11       1   21fx2y             1.254079       5.478613
                         11       1   21fx2z             1.254079       5.478613
                         11       1   21fxy2             1.254079       5.478613
                         11       1   21fxyz             1.254079       9.489235
                         11       1   21fxz2             1.254079       5.478613
                         11       1   21fy3              1.254079       2.450110
                         11       1   21fy2z             1.254079       5.478613
                         11       1   21fyz2             1.254079       5.478613
                         11       1   21fz3              1.254079       2.450110

                         12       1   10px               1.342283       2.059422
                         12       1   10py               1.342283       2.059422
                         12       1   10pz               1.342283       2.059422

                         13       1    3s                1.396123       0.915383

                         14       1   17dx2              1.720262       4.253046
                         14       1   17dxy              1.720262       7.366491
                         14       1   17dxz              1.720262       7.366491
                         14       1   17dy2              1.720262       4.253046
                         14       1   17dyz              1.720262       7.366491
                         14       1   17dz2              1.720262       4.253046

                         15       1   25gx4              1.908829       6.584835
                         15       1   25gx3y             1.908829      17.421835
                         15       1   25gx3z             1.908829      17.421835
                         15       1   25gx2y2            1.908829      22.491492
                         15       1   25gx2yz            1.908829      38.956407
                         15       1   25gx2z2            1.908829      22.491492
                         15       1   25gxy3             1.908829      17.421835
                         15       1   25gxy2z            1.908829      38.956407
                         15       1   25gxyz2            1.908829      38.956407
                         15       1   25gxz3             1.908829      17.421835
                         15       1   25gy4              1.908829       6.584835
                         15       1   25gy3z             1.908829      17.421835
                         15       1   25gy2z2            1.908829      22.491492
                         15       1   25gyz3             1.908829      17.421835
                         15       1   25gz4              1.908829       6.584835

                         16       1   22fx3              3.013227      17.610677
                         16       1   22fx2y             3.013227      39.378671
                         16       1   22fx2z             3.013227      39.378671
                         16       1   22fxy2             3.013227      39.378671
                         16       1   22fxyz             3.013227      68.205858
                         16       1   22fxz2             3.013227      39.378671
                         16       1   22fy3              3.013227      17.610677
                         16       1   22fy2z             3.013227      39.378671
                         16       1   22fyz2             3.013227      39.378671
                         16       1   22fz3              3.013227      17.610677

                         17       1   18dx2              3.205702      12.640813
                         17       1   18dxy              3.205702      21.894531
                         17       1   18dxz              3.205702      21.894531
                         17       1   18dy2              3.205702      12.640813
                         17       1   18dyz              3.205702      21.894531
                         17       1   18dz2              3.205702      12.640813

                         18       1    4s                3.967216       2.003431

                         19       1   11px               4.782880      10.082121
                         19       1   11py               4.782880      10.082121
                         19       1   11pz               4.782880      10.082121

                         20       1   19dx2              6.134517      39.357284
                         20       1   19dxy              6.134517      68.168816
                         20       1   19dxz              6.134517      68.168816
                         20       1   19dy2              6.134517      39.357284
                         20       1   19dyz              6.134517      68.168816
                         20       1   19dz2              6.134517      39.357284

                         21       1   23fx3              6.825940     110.871528
                         21       1   23fx2y             6.825940     247.916274
                         21       1   23fx2z             6.825940     247.916274
                         21       1   23fxy2             6.825940     247.916274
                         21       1   23fxyz             6.825940     429.403583
                         21       1   23fxz2             6.825940     247.916274
                         21       1   23fy3              6.825940     110.871528
                         21       1   23fy2z             6.825940     247.916274
                         21       1   23fyz2             6.825940     247.916274
                         21       1   23fz3              6.825940     110.871528

                         22       1   12px              11.792277      31.148503
                         22       1   12py              11.792277      31.148503
                         22       1   12pz              11.792277      31.148503

                         23       1    5s               12.869791       4.842713

                         24       1   13px              26.937063      87.473779
                         24       1   13py              26.937063      87.473779
                         24       1   13pz              26.937063      87.473779

                         25       1    6s               38.640700      11.045715

                         26       1    7s              105.447650      23.452426

       Atomic covalent radius [Angstrom]:                                  0.750

       Atomic van der Waals radius [Angstrom]:                             1.550

     The atoms of this atomic kind are PAW atoms (GAPW):
       Hard Gaussian function radius:                                      1.512
       Rho0 radius:                                                        1.512
       Maximum GTO radius used for PAW projector construction:            24.566

     GAPW Soft Basis Set                                 aug-TZVP-MOLOPT-ae_soft

       Number of orbital shell sets:                                           2
       Number of orbital shells:                                              16
       Number of primitive Cartesian functions:                                5
       Number of Cartesian basis functions:                                   71
       Number of spherical basis functions:                                   56
       Norm type:                                                              2

       Normalised Cartesian orbitals:

                        Set   Shell   Orbital            Exponent    Coefficient

                          1       1    1s                0.045000       0.000000
                                                         0.113512       0.014500
                                                         0.322032       0.036074
                                                         0.930550      -0.061635
                                                         2.987378       0.535699

                          1       2    2s                0.045000       0.000000
                                                         0.113512       0.032692
                                                         0.322032       0.082974
                                                         0.930550       0.396674
                                                         2.987378       0.054918

                          1       3    3s                0.045000       0.000000
                                                         0.113512       0.047996
                                                         0.322032       0.306069
                                                         0.930550      -0.408076
                                                         2.987378      -0.229943

                          1       4    4s                0.045000       0.000000
                                                         0.113512       0.171213
                                                         0.322032      -0.186943
                                                         0.930550      -0.188982
                                                         2.987378       0.637930

                          1       5    5s                0.045000       0.096440
                                                         0.113512      -0.064027
                                                         0.322032      -0.041902
                                                         0.930550       0.111692
                                                         2.987378       0.000000

                          1       6    2px               0.045000       0.000000
                                                         0.113512       0.006367
                                                         0.322032       0.040684
                                                         0.930550       0.811118
                                                         2.987378       1.750760
                          1       6    2py               0.045000       0.000000
                                                         0.113512       0.006367
                                                         0.322032       0.040684
                                                         0.930550       0.811118
                                                         2.987378       1.750760
                          1       6    2pz               0.045000       0.000000
                                                         0.113512       0.006367
                                                         0.322032       0.040684
                                                         0.930550       0.811118
                                                         2.987378       1.750760

                          1       7    3px               0.045000       0.000000
                                                         0.113512       0.011134
                                                         0.322032       0.344073
                                                         0.930550      -0.153789
                                                         2.987378      -0.764833
                          1       7    3py               0.045000       0.000000
                                                         0.113512       0.011134
                                                         0.322032       0.344073
                                                         0.930550      -0.153789
                                                         2.987378      -0.764833
                          1       7    3pz               0.045000       0.000000
                                                         0.113512       0.011134
                                                         0.322032       0.344073
                                                         0.930550      -0.153789
                                                         2.987378      -0.764833

                          1       8    4px               0.045000       0.000000
                                                         0.113512       0.104427
                                                         0.322032      -0.047567
                                                         0.930550      -0.121777
                                                         2.987378      -0.049280
                          1       8    4py               0.045000       0.000000
                                                         0.113512       0.104427
                                                         0.322032      -0.047567
                                                         0.930550      -0.121777
                                                         2.987378      -0.049280
                          1       8    4pz               0.045000       0.000000
                                                         0.113512       0.104427
                                                         0.322032      -0.047567
                                                         0.930550      -0.121777
                                                         2.987378      -0.049280

                          1       9    5px               0.045000       0.002493
                                                         0.113512      -0.112828
                                                         0.322032       0.052724
                                                         0.930550       0.295283
                                                         2.987378       0.000000
                          1       9    5py               0.045000       0.002493
                                                         0.113512      -0.112828
                                                         0.322032       0.052724
                                                         0.930550       0.295283
                                                         2.987378       0.000000
                          1       9    5pz               0.045000       0.002493
                                                         0.113512      -0.112828
                                                         0.322032       0.052724
                                                         0.930550       0.295283
                                                         2.987378       0.000000

                          1      10    3dx2              0.045000       0.000000
                                                         0.113512       0.008426
                                                         0.322032       0.004138
                                                         0.930550       0.975526
                                                         2.987378       4.861216
                          1      10    3dxy              0.045000       0.000000
                                                         0.113512       0.014594
                                                         0.322032       0.007167
                                                         0.930550       1.689661
                                                         2.987378       8.419873
                          1      10    3dxz              0.045000       0.000000
                                                         0.113512       0.014594
                                                         0.322032       0.007167
                                                         0.930550       1.689661
                                                         2.987378       8.419873
                          1      10    3dy2              0.045000       0.000000
                                                         0.113512       0.008426
                                                         0.322032       0.004138
                                                         0.930550       0.975526
                                                         2.987378       4.861216
                          1      10    3dyz              0.045000       0.000000
                                                         0.113512       0.014594
                                                         0.322032       0.007167
                                                         0.930550       1.689661
                                                         2.987378       8.419873
                          1      10    3dz2              0.045000       0.000000
                                                         0.113512       0.008426
[...]
 MP_Group             1404
 MP_Bcast            20707                 172183.
 MP_Allreduce        81107                  66804.
 MP_Sync              2539
 MP_Alltoall          8517               12839872.
 MP_SendRecv        107724                  69520.
 MP_ISendRecv       290702                  78663.
 MP_Wait            395848
 MP_comm_split          85
 MP_ISend            93346                 404135.
 MP_IRecv            97274                 387808.
 -------------------------------------------------------------------------------


 -------------------------------------------------------------------------------
 -                                                                             -
 -                           R E F E R E N C E S                               -
 -                                                                             -
 -------------------------------------------------------------------------------
 
 CP2K version 2025.1 (Development Version), the CP2K developers group (2025).
 CP2K is freely available from https://www.cp2k.org/ .
 
 T. D. Kuehne, M. Iannuzzi, M. Del Ben, V. V. Rybkin, P. Seewald, F. Stein, T. 
 Laino, R. Z. Khaliullin, O. Schuett, F. Schiffmann, D. Golze, J. Wilhelm, S. 
 Chulkov, M. H. Bani-Hashemian, V. Weber, U. Borstnik, M. Taillefumier, A. S. 
 Jakobovits, A. Lazzaro, H. Pabst, T. Mueller, R. Schade, M. Guidon, S. 
 Andermatt, N. Holmberg, G. K. Schenter, A. Hehn, A. Bussy, F. Belleflamme, G. 
 Tabacchi, A. Gloess, M. Lass, I. Bethune, C. J. Mundy, C. Plessl, M. Watkins, 
 J. VandeVondele, M. Krack, J. Hutter.
 J. Chem. Phys. 152, 194103 (2020).
 CP2K: An electronic structure and molecular dynamics software package - 
 Quickstep: Efficient and accurate electronic structure calculations.
 https://doi.org/10.1063/5.0007045

 O. Schuett, P. Messmer, J. Hutter, J. VandeVondele.
 Electronic Structure Calculations on Graphics Processing Units, 173-190 (2016).
 GPU-Accelerated Sparse Matrix-Matrix Multiplication for Linear Scaling Density 
 Functional Theory.
 https://doi.org/10.1002/9781118670712.ch8

 A. Heinecke, G. Henry, M. Hutchinson, H. Pabst.
 Proceedings of Intl. Supercomputing Conference, 981-991 (2016).
 LIBXSMM: Accelerating Small Matrix Multiplications by Runtime Code Generation.
 https://doi.org/10.1109/SC.2016.83

 J. Hutter, M. Iannuzzi, F. Schiffmann, J. VandeVondele.
 WIREs Comput Mol Sci. 4, 15-25 (2014).
 CP2K: atomistic simulations of condensed matter systems.
 https://doi.org/10.1002/wcms.1159

 U. Borstnik, J. VandeVondele, V. Weber, J. Hutter.
 Parallel Comput. 40, 47-58 (2014).
 Sparse matrix multiplication: The distributed block-compressed sparse row 
 library.
 https://doi.org/10.1016/j.parco.2014.03.012

 A. Marek, V. Blum, R. Johanni, V. Havu, B. Lang, T. Auckenthaler, A. Heinecke, 
 H. Bungartz, H. Lederer.
 J. Phys. Condens. Matter 26, 213201 (2014).
 The ELPA library: scalable parallel eigenvalue solutions for electronic 
 structure theory and computational science.
 https://doi.org/10.1088/0953-8984/26/21/213201

 M. Guidon, J. Hutter, J. VandeVondele.
 J. Chem. Theory Comput. 5, 3010-3021 (2009).
 Robust Periodic Hartree-Fock Exchange for Large-Scale Simulations Using 
 Gaussian Basis Sets.
 https://doi.org/10.1021/ct900494g

 M. Guidon, F. Schiffmann, J. Hutter, J. VandeVondele.
 J. Chem. Phys. 128, 214104 (2008).
 Ab initio molecular dynamics using hybrid density functionals.
 https://doi.org/10.1063/1.2931945

 L. Genovese, T. Deutsch, S. Goedecker.
 J. Chem. Phys. 127, 054704 (2007).
 Efficient and accurate three-dimensional Poisson solver for surface problems.
 https://doi.org/10.1063/1.2754685

 J. VandeVondele, J. Hutter.
 J. Chem. Phys. 127, 114105 (2007).
 Gaussian basis sets for accurate calculations on molecular systems in gas and 
 condensed phases.
 https://doi.org/10.1063/1.2770708

 L. Genovese, T. Deutsch, A. Neelov, S. Goedecker, G. Beylkin.
 J. Chem. Phys. 125, 074105 (2006).
 Efficient solution of Poisson's equation with free boundary conditions.
 https://doi.org/10.1063/1.2335442

 M. Iannuzzi, T. Chassaing, T. Wallman, J. Hutter.
 CHIMIA 59, 499-503 (2005).
 Ground and excited state density functional calculations with the Gaussian and 
 augmented-plane-wave method.
 https://doi.org/10.2533/000942905777676164

 M. Frigo, S. G. Johnson.
 Proc. IEEE 93, 216-231 (2005).
 The design and implementation of FFTW3.
 https://doi.org/10.1109/JPROC.2004.840301

 R. L. Martin.
 J. Chem. Phys. 118, 4775-4777 (2003).
 Natural transition orbitals.
 https://doi.org/10.1063/1.1558471

 M. Krack, M. Parrinello.
 Phys. Chem. Chem. Phys. 2, 2105-2112 (2000).
 All-electron ab-initio molecular dynamics.
 https://doi.org/10.1039/b001167n

 G. Lippert, J. Hutter, M. Parrinello.
 Theor. Chem. Acc. 103, 124-140 (1999).
 The Gaussian and augmented-plane-wave density functional method for ab initio 
 molecular dynamics simulations.
 https://doi.org/10.1007/s002140050523

 J. P. Perdew, K. Burke, M. Ernzerhof.
 Phys. Rev. Lett. 77, 3865-3868 (1996).
 Generalized gradient approximation made simple.
 https://doi.org/10.1103/PhysRevLett.77.3865


 -------------------------------------------------------------------------------
 -                                                                             -
 -                                T I M I N G                                  -
 -                                                                             -
 -------------------------------------------------------------------------------
 SUBROUTINE                       CALLS  ASD         SELF TIME        TOTAL TIME
                                MAXIMUM       AVERAGE  MAXIMUM  AVERAGE  MAXIMUM
 CP2K                                 1  1.0    0.018    0.038 3585.926 3585.937
 qs_energies                          1  2.0    0.000    0.000 3585.234 3585.245
 integrate_four_center              480  9.8   77.253   91.389 2980.339 2980.479
 integrate_four_center_main         480 10.8   10.471   36.695 2443.962 2785.953
 integrate_four_center_bin        69874 11.8 2433.490 2772.790 2433.490 2772.790
 scf_env_do_scf                       1  3.0    0.000    0.000 2618.012 2618.020
 scf_env_do_scf_inner_loop           80  4.0    0.002    0.004 2618.012 2618.020
 qs_ks_update_qs_env                 80  5.0    0.001    0.001 2574.607 2574.870
 rebuild_ks_matrix                   80  6.0    0.000    0.000 2574.598 2574.861
 qs_ks_build_kohn_sham_matrix        80  7.0    0.011    0.014 2574.597 2574.861
 hfx_ks_matrix                       80  8.0    0.001    0.002 2440.681 2440.713
 qs_energies_properties               1  3.0    0.000    0.000  964.837  964.839
 tddfpt                               1  4.0    0.000    0.000  964.836  964.839
 tddfpt_energies                      1  5.0    0.000    0.000  964.761  964.763
 tddfpt_davidson_solver               1  6.0    0.001    0.001  960.048  960.051
 tddfpt_compute_Aop_evects           10  7.0    0.000    0.000  957.024  957.027
 mp_sync                           2539 11.5  358.070  700.990  358.070  700.990
 tddfpt_apply_hfx                    10  8.0    0.003    0.003  544.519  544.520
 tddft_hfx_matrix                   400  9.0    0.005    0.010  539.670  539.792
 fhxc_kernel                         10  8.0    0.009    0.011  411.925  411.926
 fft_wrap_pw1pw2                   5694 11.1    0.112    0.148  208.328  217.262
 fft_wrap_pw1pw2_250               4008 12.1    3.164    4.152  199.723  213.886
 fft3d_ps                          5694 13.1   19.865   27.791  195.664  203.902
 mp_alltoall_z22v                  5694 15.1  169.351  177.384  169.351  177.384
 tddfpt_apply_coulomb               200  9.0    0.003    0.004  141.250  144.939
 pw_poisson_solve                   280  9.4    1.355    1.749  133.781  137.430
 prepare_gapw_den                   281  8.7    0.007    0.008  127.952  130.329
 x_to_yz                           2324 13.7    2.521    4.341  115.490  118.560
 qs_rho_update_rho_low              282  7.8    0.003    0.004  108.714  108.772
 calculate_rho_atom                1405  9.7    7.728  100.383    7.728  100.384
 mp_sum_dv                        47345  8.8   92.224   95.489   92.224   95.489
 calc_screening_functions             1 10.0   88.114   90.104   89.556   91.670
 calculate_rho_elec                 282  8.8    0.370    0.525   88.779   88.796
 gaVxcgb_GC                        1120  9.7    1.360   78.275    1.360   78.275
 yz_to_x                           2246 14.5    1.951    2.228   58.165   63.812
 calculate_xc_2nd_deriv_atom        200  9.0    0.135    3.333    1.160   59.872
 xc_pw_derive                      1683 11.0    0.013    0.015   57.720   59.849
 density_rs2pw                      282  9.8    0.012    0.014   52.473   59.691
 integrate_v_rspace                 280  9.0    0.008    0.010   54.535   57.911
 mp_sum_d                         15977  7.3   38.389   53.494   38.389   53.494
 tddfpt_apply_xc_analytic           200  9.0    0.318    0.471   50.007   51.541
 potential_pw2rs                    280 10.0    0.029    0.037   48.856   49.105
 transfer_pw2rs                    1401 10.9    0.027    0.035   46.620   49.017
 mp_waitany                       93346 12.8   37.043   45.411   37.043   45.411
 ps_wavelet_solve                   280 10.4   16.631   22.633   39.520   42.268
 grid_collocate_task_list           282  9.8   33.207   39.997   33.207   39.997
 xc_pw_divergence                   280 10.7    0.006    0.007   37.890   38.954
 transfer_rs2pw                    1410 10.8    0.032    0.054   32.300   38.333
 transfer_pw2rs_250                 561 11.7    5.834    6.237   27.830   30.987
 xc_calc_2nd_deriv_analytical      1800 10.2    1.429    1.767   29.217   29.901
 mp_sum_dm                        16997 10.0   25.545   26.962   25.545   26.962
 put_rho0_on_grid                   281  9.7    0.411    0.639   24.474   26.887
 integrate_vhg0_rspace              280  9.4    1.919    2.148   24.431   26.186
 mp_alltoall_d54                    280 11.4   11.913   25.631   11.913   25.631
 transfer_rs2pw_250                 564 11.8    5.850    6.512   20.234   25.404
 calculate_vxc_atom                  80  8.0    0.057    0.687   23.188   23.189
 mp_waitall_1                    547118 13.2   17.364   22.786   17.364   22.786
 qs_vxc_create                       80  8.0    0.001    0.001   22.747   22.747
 xc_vxc_pw_create                    80  9.0    0.168    0.239   22.746   22.747
 mp_alltoall_d11v                 17640 11.6   14.341   20.644   14.341   20.644
 calculate_rho_atom_coeff           282  8.8    1.298    1.895   19.932   19.987
 fft_wrap_pw1pw2_90                 562 11.9    0.106    0.192    6.943   16.008
 mp_alltoall_d45                    281 11.4   12.743   15.459   12.743   15.459
 sum_up_and_integrate                80  8.0    0.001    0.002   13.046   13.992
 transfer_pw2rs_90                  280 12.0    1.049    1.244   11.400   13.948
 Vh_1c_gg_integrals                 280  9.4    0.154    6.402    7.656   12.523
 xc_rho_set_and_dset_create          81 10.0    0.207    0.276   10.868   12.055
 mp_isend_dm3                     12370 12.8    8.221   11.505    8.221   11.505
 update_ks_atom                     280  8.7    0.808    1.704    7.504   11.112
 mp_bcast_dm                      11200  9.7    6.696   10.841    6.696   10.841
 cp2k_distribution_to_z_slices      280 10.4    1.148    1.407    8.304    9.164
 grid_integrate_task_list           280 10.0    0.725    8.699    0.725    8.699
 rs_gather_matrices                 280 10.0    0.010    0.029    4.945    8.551
 transfer_rs2pw_90                  282 11.8    1.320    1.544    6.910    8.214
 integrate_four_center_getP         480 10.8    0.514    0.734    6.867    8.199
 cp_dbcsr_sm_fm_multiply           1246  8.6    0.015    0.018    7.137    7.602
 gspace_mixing                       79  5.0    0.103    0.147    7.495    7.506
 transfer_pw2rs_30                  280 12.0    1.228    1.405    6.296    7.386
 pw_integral_ab_c1d_c1d_gs          280 10.4    0.776    0.907    2.859    6.441
 rs_grid_zero                      1403 11.9    5.079    5.488    5.079    5.488
 qs_scf_new_mos                      80  5.0    0.001    0.001    5.299    5.452
 dbcsr_multiply_generic            1726 10.3    0.043    0.058    4.229    5.341
 mp_sum_l                          6570 10.6    2.790    5.171    2.790    5.171
 mp_alltoall_i22                   5506 11.4    3.111    5.139    3.111    5.139
 cp_fm_diag_elpa                    132  7.2    0.000    0.000    5.008    5.017
 calculate_rho0_atom               1405  9.7    4.502    4.955    4.502    4.955
 cp_fm_diag_elpa_base               132  8.3    2.914    4.715    2.935    4.741
 eigensolver_symm                    80  6.0    0.005    0.007    4.671    4.677
 pw_derive                         2523 11.8    4.204    4.645    4.204    4.645
 cp_dbcsr_sm_fm_multiply_core      1246  9.6    0.002    0.002    3.524    4.625
 integrate_four_center_load         480 10.8    0.001    0.002    2.181    4.535
 hfx_load_balance                     1 11.0    0.000    0.000    2.180    4.534
 hfx_load_balance_range               1 12.0    0.000    0.000    2.166    4.520
 copy_dbcsr_to_fm                  1348  9.3    0.010    0.011    2.621    4.321
 transfer_rs2pw_30                  282 11.8    1.549    1.755    3.965    4.296
 parallel_gemm_fm                  1842  8.3    0.002    0.002    4.165    4.252
 parallel_gemm_fm_cosma            1842  9.3    4.163    4.250    4.163    4.250
 pw_copy                           3805 11.0    3.527    4.064    3.527    4.064
 multiply_cannon                   1726 11.3    0.103    0.109    2.767    3.918
 cp_fm_redistribute_end             132  8.2    1.897    3.725    1.915    3.733
 pw_gather_p                       2810 13.4    2.990    3.726    2.990    3.726
 integrate_four_center_dist_KS      480 10.8    0.216    0.255    3.607    3.615
 multiply_cannon_loop              1726 12.3    0.113    0.120    2.394    3.496
 tddfpt_print_nto_analysis            1  6.0    0.002    0.002    3.479    3.479
 broyden_mixing                      79  6.0    3.258    3.297    3.379    3.402
 mp_sendrecv_dv                  107724 12.8    3.113    3.399    3.113    3.399
 pw_scatter_p                      2884 12.8    3.032    3.381    3.032    3.381
 dbcsr_desymmetrize_deep           1349 10.3    0.020    0.030    1.630    3.328
 multiply_cannon_metrocomm3       41424 13.3    0.059    0.061    1.366    3.116
 dbcsr_complete_redistribute       4157 10.5    0.157    0.279    2.657    3.109
 pw_copy_to_array                  2810 13.4    2.109    2.967    2.109    2.967
 powell_optimize                1615997 11.0    2.487    2.906    2.487    2.906
 calc_pair_dist_radii                 1 10.0    1.531    1.591    2.576    2.756
 multiply_cannon_metrocomm1       41424 13.3    0.022    0.024    0.626    2.741
 mp_isend_dv                     163824 13.6    0.211    2.697    0.211    2.697
 pw_poisson_set                     281 10.4    0.005    0.007    2.563    2.654
 mp_max_i                           790  5.2    1.267    2.643    1.267    2.643
 multiply_cannon_metrocomm4       39698 13.3    0.062    0.069    0.126    2.489
 cp_fm_geeig                         20  7.0    0.001    0.001    2.462    2.466
 copy_fm_to_dbcsr                  2807  9.6    0.008    0.009    1.788    2.256
 pw_poisson_rebuild                 280 10.4    0.000    0.001    2.173    2.237
 ps_wavelet_create                    1 10.0    0.000    0.000    2.173    2.237
 RS_z_slice_distribution              1 11.0    0.193    0.231    2.173    2.237
 xc_functional_eval                2321 10.9    0.001    0.004    0.955    2.203
 pbe_lda_eval                      2321 11.9    0.954    2.199    0.954    2.199
 pw_axpy                           3008 10.8    1.565    1.870    1.565    1.870
 pw_zero                           3086 10.6    1.519    1.800    1.519    1.800
 qs_energies_init_hamiltonians        1  3.0    0.000    0.000    1.761    1.761
 build_core_hamiltonian_matrix        1  4.0    0.000    0.000    1.757    1.757
 overlap_condnum                      1  5.0    0.000    0.000    1.736    1.756
 arnoldi_conjugate_gradient           5  6.0    0.026    0.033    1.653    1.653
 pw_copy_from_array                2884 12.8    1.134    1.497    1.134    1.497
 fft_wrap_pw1pw2_30                 562 11.9    0.014    0.018    1.126    1.447
 tddfpt_compute_residual_vects        9  7.0    0.001    0.001    1.319    1.320
 mp_alltoall_z11v                  1124 14.9    1.022    1.298    1.022    1.298
 mp_isendrecv_dv                 290320 12.3    0.252    1.292    0.252    1.292
 transfer_rs2pw_10                  282 11.8    0.462    0.565    1.159    1.288
 transfer_pw2rs_10                  280 12.0    0.324    0.370    1.067    1.159
 tddfpt_orthonormalize_psi1_psi      11  6.9    0.013    0.014    1.076    1.077
 dbcsr_sym_matrix_vector_mult      8795  7.0    0.063    0.068    0.944    1.038
 cp_dbcsr_plus_fm_fm_t              280  8.4    0.002    0.003    0.959    0.985
 mp_rank_compare                   5694 14.1    0.814    0.923    0.814    0.923
 tddfpt_construct_ground_state_       1  6.0    0.000    0.000    0.874    0.886
 prepare_dr1dr                     1800 11.2    0.615    0.825    0.615    0.825
 make_m2s                          3452 11.3    0.032    0.035    0.697    0.774
 mp_irecv_dm3                     12370 12.8    0.283    0.712    0.283    0.712
 xz_to_yz                           564 13.8    0.030    0.044    0.611    0.701
 make_images                       3452 12.3    0.097    0.125    0.619    0.689
 yz_to_xz                           560 14.0    0.039    0.044    0.480    0.671
 rs_scatter_matrices                282  9.8    0.004    0.010    0.053    0.657
 dbcsr_rep_row_to_rep_col_vec      8795  8.0    0.025    0.030    0.287    0.596
 offload_free_buffer                288 10.2    0.475    0.585    0.475    0.585
 tddfpt_apply_energy_diff            10  8.0    0.001    0.001    0.580    0.581
 multiply_cannon_multrec          41424 13.3    0.066    0.573    0.070    0.578
 xc_2nd_deriv_of_r                 1600 10.0    0.002    0.062    0.015    0.544
 fft_wrap_pw1pw2_10                 562 11.9    0.004    0.005    0.425    0.539
 init_scf_run                         1  3.0    0.000    0.000    0.529    0.529
 cp_fm_triangular_invert             20  8.0    0.526    0.527    0.526    0.527
 cp_fm_trace_a1b1t1_aa            20310  8.0    0.038    0.050    0.505    0.510
 cp_fm_cholesky_decompose            20  8.0    0.494    0.498    0.494    0.498
 scf_env_initial_rho_setup            1  4.0    0.000    0.000    0.480    0.481
 tddfpt_orthogonalize_psi1_psi0      11  6.9    0.000    0.000    0.423    0.440
 create_qs_kind_set                   1  2.0    0.000    0.000    0.392    0.393
 read_qs_kind                         5  3.0    0.104    0.130    0.392    0.392
 cp_fm_triangular_multiply           60  8.0    0.382    0.383    0.382    0.383
 dbcsr_col_vec_to_rep_row          8795  8.0    0.030    0.037    0.273    0.380
 -------------------------------------------------------------------------------

 The number of warnings for this run is : 1
 
 -------------------------------------------------------------------------------
  **** **** ******  **  PROGRAM ENDED AT                 2025-03-23 01:15:40.872
 ***** ** ***  *** **   PROGRAM RAN ON                     n2cn0257.ab2021.local
 **    ****   ******    PROGRAM RAN BY                                  metdyn02
 ***** **    ** ** **   PROGRAM PROCESS ID                                988005
  **** **  *******  **  PROGRAM STOPPED IN /scratch/hpc-prf-metdyn/metdyn02_Remi
                                           /10_MOL/05_MOL/aUKBqsEOTmq69kFe5R_nOg
                                           /5k_set_final_qzvp/JIBHAD/TZVP/TDDFT/
                                           RILIM
