 DBCSR| CPU Multiplication driver                                           BLAS (U)
 DBCSR| Multrec recursion limit                                              512 (U)
 DBCSR| Multiplication stack size                                           1000 (D)
 DBCSR| Maximum elements for images                                    UNLIMITED (U)
 DBCSR| Multiplicative factor virtual images                                   1 (U)
 DBCSR| Use multiplication densification                                       T (D)
 DBCSR| Multiplication size stacks                                             3 (U)
 DBCSR| Use memory pool for CPU allocation                                     F (U)
 DBCSR| Number of 3D layers                                               SINGLE (U)
 DBCSR| Use MPI memory allocation                                              F (U)
 DBCSR| Use RMA algorithm                                                      F (U)
 DBCSR| Use Communication thread                                               T (U)
 DBCSR| Communication thread load                                             75 (D)
 DBCSR| MPI: My process id                                                     0
 DBCSR| MPI: Number of processes                                             216
 DBCSR| OMP: Current number of threads                                         4
 DBCSR| OMP: Max number of threads                                             4
 DBCSR| Split modifier for TAS multiplication algorithm                  1.0E+00 (U)


  **** **** ******  **  PROGRAM STARTED AT               2025-04-02 18:10:57.243
 ***** ** ***  *** **   PROGRAM STARTED ON                          i05r01c04s01
 **    ****   ******    PROGRAM STARTED BY                               di38fab
 ***** **    ** ** **   PROGRAM PROCESS ID                                644531
  **** **  *******  **  PROGRAM STARTED IN /hppfs/scratch/04/di38fab/07_MOL_non_
                                           aug/05_MOL_non_aug/05_MOL/aUKBqsEOTmq
                                           69kFe5R_nOg/5k_set_final_qzvp/GIRRII0
                                           1/cc-pVDZ/TDDFT

 CP2K| version string:                 CP2K version 2025.1 (Development Version)
 CP2K| source code revision number:                                  git:d2e611a
 CP2K| cp2kflags: omp libint fftw3 libxc parallel scalapack max_contr=4         
 CP2K| is freely available from                            https://www.cp2k.org/
 CP2K| Program compiled at                       Thu 06 Mar 2025 05:09:20 PM CET
 CP2K| Program compiled on                                               login02
 CP2K| Program compiled for                                        Supermuc-foss
 CP2K| Data directory path                  /hppfs/work/pn36zo/di38fab/cp2k/data
 CP2K| Input file name                                                    GW.inp

 GLOBAL| Force Environment number                                              1
 GLOBAL| Basis set file name            /hppfs/scratch/04/di38fab/04_TMD/BASIS_A
 GLOBAL| Potential file name            /hppfs/work/pn36zo/di38fab/cp2k/data/ALL
 GLOBAL| MM Potential file name                                     MM_POTENTIAL
 GLOBAL| Coordinate file name                                      __STD_INPUT__
 GLOBAL| Method name                                                        CP2K
 GLOBAL| Project name                                                       MoS2
 GLOBAL| Run type                                                         ENERGY
 GLOBAL| FFT library                                                       FFTW3
 GLOBAL| Diagonalization library                                       ScaLAPACK
 GLOBAL| DGEMM library                                                      BLAS
 GLOBAL| Orthonormality check for eigenvectors                          DISABLED
 GLOBAL| Matrix multiplication library                                 ScaLAPACK
 GLOBAL| All-to-all communication in single precision                          F
 GLOBAL| FFTs using library dependent lengths                                  F
 GLOBAL| Grid backend                                                       AUTO
 GLOBAL| Global print level                                               MEDIUM
 GLOBAL| MPI I/O enabled                                                       T
 GLOBAL| Total number of message passing processes                           216
 GLOBAL| Number of threads for this process                                    4
 GLOBAL| This output is from process                                           0
 GLOBAL| OpenMP stack size per thread (OMP_STACKSIZE)                    default
 GLOBAL| CPU model name             Intel(R) Xeon(R) Platinum 8174 CPU @ 3.10GHz

 MEMORY| system memory details [Kb]
 MEMORY|                        rank 0           min           max       average
 MEMORY| MemTotal             98436664      98436660      98436736      98436673
 MEMORY| MemFree              84490996      83559596      84595528      84052074
 MEMORY| Buffers                     0             0             0             0
 MEMORY| Cached                2387132       2383808       2417628       2399049
 MEMORY| Slab                  1135788       1120048       1253300       1214953
 MEMORY| SReclaimable           262112        260980        284452        273542
 MEMORY| MemLikelyFree        87140240      86238392      87242904      86724667


 *** Fundamental physical constants (SI units) ***

 *** Literature: B. J. Mohr and B. N. Taylor,
 ***             CODATA recommended values of the fundamental physical
 ***             constants: 2006, Web Version 5.1
 ***             http://physics.nist.gov/constants

 Speed of light in vacuum [m/s]                             2.99792458000000E+08
 Magnetic constant or permeability of vacuum [N/A**2]       1.25663706143592E-06
 Electric constant or permittivity of vacuum [F/m]          8.85418781762039E-12
 Planck constant (h) [J*s]                                  6.62606896000000E-34
 Planck constant (h-bar) [J*s]                              1.05457162825177E-34
 Elementary charge [C]                                      1.60217648700000E-19
 Electron mass [kg]                                         9.10938215000000E-31
 Electron g factor [ ]                                     -2.00231930436220E+00
 Proton mass [kg]                                           1.67262163700000E-27
 Fine-structure constant                                    7.29735253760000E-03
 Rydberg constant [1/m]                                     1.09737315685270E+07
 Avogadro constant [1/mol]                                  6.02214179000000E+23
 Boltzmann constant [J/K]                                   1.38065040000000E-23
 Atomic mass unit [kg]                                      1.66053878200000E-27
 Bohr radius [m]                                            5.29177208590000E-11

 *** Conversion factors ***

 [u] -> [a.u.]                                              1.82288848426455E+03
 [Angstrom] -> [Bohr] = [a.u.]                              1.88972613288564E+00
 [a.u.] = [Bohr] -> [Angstrom]                              5.29177208590000E-01
 [a.u.] -> [s]                                              2.41888432650478E-17
 [a.u.] -> [fs]                                             2.41888432650478E-02
 [a.u.] -> [J]                                              4.35974393937059E-18
 [a.u.] -> [N]                                              8.23872205491840E-08
 [a.u.] -> [K]                                              3.15774647902944E+05
 [a.u.] -> [kJ/mol]                                         2.62549961709828E+03
 [a.u.] -> [kcal/mol]                                       6.27509468713739E+02
 [a.u.] -> [Pa]                                             2.94210107994716E+13
 [a.u.] -> [bar]                                            2.94210107994716E+08
 [a.u.] -> [atm]                                            2.90362800883016E+08
 [a.u.] -> [eV]                                             2.72113838565563E+01
 [a.u.] -> [Hz]                                             6.57968392072181E+15
 [a.u.] -> [1/cm] (wave numbers)                            2.19474631370540E+05
 [a.u./Bohr**2] -> [1/cm]                                   5.14048714338585E+03
 

 CELL_TOP| Volume [angstrom^3]:                                     27000.000000
 CELL_TOP| Vector a [angstrom    30.000     0.000     0.000   |a| =    30.000000
 CELL_TOP| Vector b [angstrom     0.000    30.000     0.000   |b| =    30.000000
 CELL_TOP| Vector c [angstrom     0.000     0.000    30.000   |c| =    30.000000
 CELL_TOP| Angle (b,c), alpha [degree]:                                90.000000
 CELL_TOP| Angle (a,c), beta  [degree]:                                90.000000
 CELL_TOP| Angle (a,b), gamma [degree]:                                90.000000
 CELL_TOP| Numerically orthorhombic:                                         YES
 CELL_TOP| Periodicity                                                      NONE

 GENERATE|  Preliminary Number of Bonds generated:                             0
 GENERATE|  Achieved consistency in connectivity generation.

 CELL| Volume [angstrom^3]:                                         27000.000000
 CELL| Vector a [angstrom]:      30.000     0.000     0.000   |a| =    30.000000
 CELL| Vector b [angstrom]:       0.000    30.000     0.000   |b| =    30.000000
 CELL| Vector c [angstrom]:       0.000     0.000    30.000   |c| =    30.000000
 CELL| Angle (b,c), alpha [degree]:                                    90.000000
 CELL| Angle (a,c), beta  [degree]:                                    90.000000
 CELL| Angle (a,b), gamma [degree]:                                    90.000000
 CELL| Numerically orthorhombic:                                             YES
 CELL| Periodicity                                                          NONE

 CELL_REF| Volume [angstrom^3]:                                     27000.000000
 CELL_REF| Vector a [angstrom    30.000     0.000     0.000   |a| =    30.000000
 CELL_REF| Vector b [angstrom     0.000    30.000     0.000   |b| =    30.000000
 CELL_REF| Vector c [angstrom     0.000     0.000    30.000   |c| =    30.000000
 CELL_REF| Angle (b,c), alpha [degree]:                                90.000000
 CELL_REF| Angle (a,c), beta  [degree]:                                90.000000
 CELL_REF| Angle (a,b), gamma [degree]:                                90.000000
 CELL_REF| Numerically orthorhombic:                                         YES
 CELL_REF| Periodicity                                                      NONE

 *******************************************************************************
 *******************************************************************************
 **                                                                           **
 **     #####                         ##              ##                      **
 **    ##   ##            ##          ##              ##                      **
 **   ##     ##                       ##            ######                    **
 **   ##     ##  ##   ##  ##   #####  ##  ##   ####   ##    #####    #####    **
 **   ##     ##  ##   ##  ##  ##      ## ##   ##      ##   ##   ##  ##   ##   **
 **   ##  ## ##  ##   ##  ##  ##      ####     ###    ##   ######   ######    **
 **    ##  ###   ##   ##  ##  ##      ## ##      ##   ##   ##       ##        **
 **     #######   #####   ##   #####  ##  ##  ####    ##    #####   ##        **
 **           ##                                                    ##        **
 **                                                                           **
 **                                                ... make the atoms dance   **
 **                                                                           **
 **            Copyright (C) by CP2K developers group (2000-2025)             **
 **                      J. Chem. Phys. 152, 194103 (2020)                    **
 **                                                                           **
 *******************************************************************************

 DFT| Spin restricted Kohn-Sham (RKS) calculation                            RKS
 DFT| Multiplicity                                                             1
 DFT| Number of spin states                                                    1
 DFT| Charge                                                                   0
 DFT| Self-interaction correction (SIC)                                       NO
 DFT| Cutoffs: density                                              1.000000E-10
 DFT|          gradient                                             1.000000E-10
 DFT|          tau                                                  1.000000E-10
 DFT|          cutoff_smoothing_range                               0.000000E+00
 DFT| XC density smoothing                                                  NONE
 DFT| XC derivatives                                                          PW

 FUNCTIONAL| PBE:
 FUNCTIONAL| J.P.Perdew, K.Burke, M.Ernzerhof, Phys. Rev. Letter, vol. 77, n 18,
 FUNCTIONAL|  pp. 3865-3868, (1996)sx=0.750sc=1.000{spin unpolarized}           


 QS| Method:                                                                GAPW
 QS| Density plane wave grid type                        NON-SPHERICAL FULLSPACE
 QS| Number of grid levels:                                                    4
 QS| Density cutoff [a.u.]:                                                250.0
 QS| Multi grid cutoff [a.u.]: 1) grid level                               250.0
 QS|                           2) grid level                                83.3
 QS|                           3) grid level                                27.8
 QS|                           4) grid level                                 9.3
 QS| Grid level progression factor:                                          3.0
 QS| Relative density cutoff [a.u.]:                                        50.0
 QS| Interaction thresholds: eps_pgf_orb:                                1.0E-12
 QS|                         eps_filter_matrix:                          0.0E+00
 QS|                         eps_core_charge:                            1.0E-14
 QS|                         eps_rho_gspace:                             1.0E-12
 QS|                         eps_rho_rspace:                             1.0E-12
 QS|                         eps_gvg_rspace:                             1.0E-06
 QS|                         eps_ppl:                                    1.0E-02
 QS|                         eps_ppnl:                                   1.0E-08
 QS| GAPW|      One center basis from orbital basis primitives
 QS| GAPW|                   eps_fit:                                    1.0E-04
 QS| GAPW|                   eps_iso:                                    1.0E-12
 QS| GAPW|                   eps_svd:                                    1.0E-08
 QS| GAPW|                   eps_cpc:                                    1.0E-12
 QS| GAPW|   atom-r-grid: quadrature:                                     GC_LOG
 QS| GAPW|      atom-s-grid:  max l :                                          4
 QS| GAPW|      max_l_rho0 :                                                   2


 ATOMIC KIND INFORMATION

  1. Atomic kind: S                                     Number of atoms:       4

     Orbital Basis Set                                                   cc-pVDZ

       Number of orbital shell sets:                                           3
       Number of orbital shells:                                               8
       Number of primitive Cartesian functions:                               21
       Number of Cartesian basis functions:                                   19
       Number of spherical basis functions:                                   18
       Norm type:                                                              2

       Normalised Cartesian orbitals:

                        Set   Shell   Orbital            Exponent    Coefficient

                          1       1    1px             399.700000      11.400936
                                                        94.190000      14.292268
                                                        29.750000      14.286128
                                                        10.770000       9.842934
                                                         4.119000       3.839926
                                                         1.625000       0.539735
                                                         0.472600       0.005705
                                                         0.140700      -0.000007
                          1       1    1py             399.700000      11.400936
                                                        94.190000      14.292268
                                                        29.750000      14.286128
                                                        10.770000       9.842934
                                                         4.119000       3.839926
                                                         1.625000       0.539735
                                                         0.472600       0.005705
                                                         0.140700      -0.000007
                          1       1    1pz             399.700000      11.400936
                                                        94.190000      14.292268
                                                        29.750000      14.286128
                                                        10.770000       9.842934
                                                         4.119000       3.839926
                                                         1.625000       0.539735
                                                         0.472600       0.005705
                                                         0.140700      -0.000007

                          1       2    2px             399.700000      -2.961452
                                                        94.190000      -3.620726
                                                        29.750000      -3.871231
                                                        10.770000      -2.599246
                                                         4.119000      -1.237867
                                                         1.625000       0.078954
                                                         0.472600       0.313663
                                                         0.140700       0.065687
                          1       2    2py             399.700000      -2.961452
                                                        94.190000      -3.620726
                                                        29.750000      -3.871231
                                                        10.770000      -2.599246
                                                         4.119000      -1.237867
                                                         1.625000       0.078954
                                                         0.472600       0.313663
                                                         0.140700       0.065687
                          1       2    2pz             399.700000      -2.961452
                                                        94.190000      -3.620726
                                                        29.750000      -3.871231
                                                        10.770000      -2.599246
                                                         4.119000      -1.237867
                                                         1.625000       0.078954
                                                         0.472600       0.313663
                                                         0.140700       0.065687

                          1       3    3px             399.700000       0.000000
                                                        94.190000       0.000000
                                                        29.750000       0.000000
                                                        10.770000       0.000000
                                                         4.119000       0.000000
                                                         1.625000       0.000000
                                                         0.472600       0.000000
                                                         0.140700       0.122831
                          1       3    3py             399.700000       0.000000
                                                        94.190000       0.000000
                                                        29.750000       0.000000
                                                        10.770000       0.000000
                                                         4.119000       0.000000
                                                         1.625000       0.000000
                                                         0.472600       0.000000
                                                         0.140700       0.122831
                          1       3    3pz             399.700000       0.000000
                                                        94.190000       0.000000
                                                        29.750000       0.000000
                                                        10.770000       0.000000
                                                         4.119000       0.000000
                                                         1.625000       0.000000
                                                         0.472600       0.000000
                                                         0.140700       0.122831

                          2       1    1s           110800.000000       1.071832
                                                     16610.000000       2.002384
                                                      3781.000000       3.423404
                                                      1071.000000       5.376879
                                                       349.800000       7.413604
                                                       126.300000       8.148781
                                                        49.260000       5.584810
                                                        20.160000       1.564869
                                                         5.720000       0.047178
                                                         2.182000      -0.003807
                                                         0.432700       0.000323
                                                         0.157000      -0.000065

                          2       2    2s           110800.000000      -0.297369
                                                     16610.000000      -0.550248
                                                      3781.000000      -0.961087
                                                      1071.000000      -1.503098
                                                       349.800000      -2.241502
                                                       126.300000      -2.671755
                                                        49.260000      -2.646951
                                                        20.160000      -0.836474
                                                         5.720000       1.352816
                                                         2.182000       0.776829
                                                         0.432700       0.015086
                                                         0.157000      -0.001683

                          2       3    3s           110800.000000       0.086166
                                                     16610.000000       0.160047
                                                      3781.000000       0.278185
                                                      1071.000000       0.438949
                                                       349.800000       0.651218
                                                       126.300000       0.795827
                                                        49.260000       0.794922
                                                        20.160000       0.280213
                                                         5.720000      -0.546916
                                                         2.182000      -0.502714
                                                         0.432700       0.240627
                                                         0.157000       0.098999

                          2       4    4s           110800.000000       0.000000
                                                     16610.000000       0.000000
                                                      3781.000000       0.000000
                                                      1071.000000       0.000000
                                                       349.800000       0.000000
                                                       126.300000       0.000000
                                                        49.260000       0.000000
                                                        20.160000       0.000000
                                                         5.720000       0.000000
                                                         2.182000       0.000000
                                                         0.432700       0.000000
                                                         0.157000       0.177760

                          3       1    1dx2              0.479000       0.453938
                          3       1    1dxy              0.479000       0.786244
                          3       1    1dxz              0.479000       0.786244
                          3       1    1dy2              0.479000       0.453938
                          3       1    1dyz              0.479000       0.786244
                          3       1    1dz2              0.479000       0.453938

     RI Auxiliary Basis Set                                        cc-pVDZ-RIFIT

       Number of orbital shell sets:                                          24
       Number of orbital shells:                                              24
       Number of primitive Cartesian functions:                               24
       Number of Cartesian basis functions:                                   90
       Number of spherical basis functions:                                   76
       Norm type:                                                              2

       Normalised Cartesian orbitals:

                        Set   Shell   Orbital            Exponent    Coefficient

                          1       1    1s                0.167641       0.186722

                          2       1    1px               0.294775       0.309601
                          2       1    1py               0.294775       0.309601
                          2       1    1pz               0.294775       0.309601

                          3       1    1dx2              0.327310       0.233124
                          3       1    1dxy              0.327310       0.403783
                          3       1    1dxz              0.327310       0.403783
                          3       1    1dy2              0.327310       0.233124
                          3       1    1dyz              0.327310       0.403783
                          3       1    1dz2              0.327310       0.233124

                          4       1    1s                0.392266       0.353261

                          5       1    1px               0.706807       0.923774
                          5       1    1py               0.706807       0.923774
                          5       1    1pz               0.706807       0.923774

                          6       1    1s                0.719901       0.557012

                          7       1    1fx3              0.804154       0.901505
                          7       1    1fx2y             0.804154       2.015826
                          7       1    1fx2z             0.804154       2.015826
                          7       1    1fxy2             0.804154       2.015826
                          7       1    1fxyz             0.804154       3.491513
                          7       1    1fxz2             0.804154       2.015826
                          7       1    1fy3              0.804154       0.901505
                          7       1    1fy2z             0.804154       2.015826
                          7       1    1fyz2             0.804154       2.015826
                          7       1    1fz3              0.804154       0.901505

                          8       1    1dx2              0.842734       1.220023
                          8       1    1dxy              0.842734       2.113142
                          8       1    1dxz              0.842734       2.113142
                          8       1    1dy2              0.842734       1.220023
                          8       1    1dyz              0.842734       2.113142
                          8       1    1dz2              0.842734       1.220023

                          9       1    1px               1.129998       1.660684
                          9       1    1py               1.129998       1.660684
                          9       1    1pz               1.129998       1.660684

                         10       1    1s                1.198004       0.816120

                         11       1    1px               2.705832       4.946706
                         11       1    1py               2.705832       4.946706
                         11       1    1pz               2.705832       4.946706

                         12       1    1dx2              3.396356      13.985644
                         12       1    1dxy              3.396356      24.223846
                         12       1    1dxz              3.396356      24.223846
                         12       1    1dy2              3.396356      13.985644
                         12       1    1dyz              3.396356      24.223846
                         12       1    1dz2              3.396356      13.985644

                         13       1    1s                3.636248       1.876723

                         14       1    1fx3              3.748866      28.789173
                         14       1    1fx2y             3.748866      64.374548
                         14       1    1fx2z             3.748866      64.374548
                         14       1    1fxy2             3.748866      64.374548
                         14       1    1fxyz             3.748866     111.499987
                         14       1    1fxz2             3.748866      64.374548
                         14       1    1fy3              3.748866      28.789173
                         14       1    1fy2z             3.748866      64.374548
                         14       1    1fyz2             3.748866      64.374548
                         14       1    1fz3              3.748866      28.789173

                         15       1    1dx2              6.331105      41.590926
                         15       1    1dxy              6.331105      72.037597
                         15       1    1dxz              6.331105      72.037597
                         15       1    1dy2              6.331105      41.590926
                         15       1    1dyz              6.331105      72.037597
                         15       1    1dz2              6.331105      41.590926

                         16       1    1px               6.817352      15.702173
                         16       1    1py               6.817352      15.702173
                         16       1    1pz               6.817352      15.702173

                         17       1    1s                7.500706       3.230254

                         18       1    1fx3              9.005280     206.810777
                         18       1    1fx2y             9.005280     462.442956
                         18       1    1fx2z             9.005280     462.442956
                         18       1    1fxy2             9.005280     462.442956
                         18       1    1fxyz             9.005280     800.974696
                         18       1    1fxz2             9.005280     462.442956
                         18       1    1fy3              9.005280     206.810777
                         18       1    1fy2z             9.005280     462.442956
                         18       1    1fyz2             9.005280     462.442956
                         18       1    1fz3              9.005280     206.810777

                         19       1    1px              15.326807      43.226960
                         19       1    1py              15.326807      43.226960
                         19       1    1pz              15.326807      43.226960

                         20       1    1s               15.451154       5.554318

                         21       1    1dx2             26.396606     505.962818
                         21       1    1dxy             26.396606     876.353307
                         21       1    1dxz             26.396606     876.353307
                         21       1    1dy2             26.396606     505.962818
                         21       1    1dyz             26.396606     876.353307
                         21       1    1dz2             26.396606     505.962818

                         22       1    1s               54.508181      14.297377

                         23       1    1px             100.479539     453.458063
                         23       1    1py             100.479539     453.458063
                         23       1    1pz             100.479539     453.458063

                         24       1    1s              227.606460      41.763658

       Atomic covalent radius [Angstrom]:                                  1.020

       Atomic van der Waals radius [Angstrom]:                             1.800

     The atoms of this atomic kind are PAW atoms (GAPW):
       Hard Gaussian function radius:                                      1.512
       Rho0 radius:                                                        1.512
       Maximum GTO radius used for PAW projector construction:            24.566

     GAPW Soft Basis Set                                            cc-pVDZ_soft

       Number of orbital shell sets:                                           3
       Number of orbital shells:                                               8
       Number of primitive Cartesian functions:                                8
       Number of Cartesian basis functions:                                   19
       Number of spherical basis functions:                                   18
       Norm type:                                                              2

       Normalised Cartesian orbitals:

                        Set   Shell   Orbital            Exponent    Coefficient

                          1       1    1px               4.119000       3.839926
                                                         1.625000       0.539735
                                                         0.472600       0.005705
                                                         0.140700      -0.000007
                          1       1    1py               4.119000       3.839926
                                                         1.625000       0.539735
                                                         0.472600       0.005705
                                                         0.140700      -0.000007
                          1       1    1pz               4.119000       3.839926
                                                         1.625000       0.539735
                                                         0.472600       0.005705
                                                         0.140700      -0.000007

                          1       2    2px               4.119000      -1.237867
                                                         1.625000       0.078954
                                                         0.472600       0.313663
                                                         0.140700       0.065687
                          1       2    2py               4.119000      -1.237867
                                                         1.625000       0.078954
                                                         0.472600       0.313663
                                                         0.140700       0.065687
                          1       2    2pz               4.119000      -1.237867
                                                         1.625000       0.078954
                                                         0.472600       0.313663
                                                         0.140700       0.065687

                          1       3    3px               4.119000       0.000000
                                                         1.625000       0.000000
                                                         0.472600       0.000000
                                                         0.140700       0.122831
                          1       3    3py               4.119000       0.000000
                                                         1.625000       0.000000
                                                         0.472600       0.000000
                                                         0.140700       0.122831
                          1       3    3pz               4.119000       0.000000
                                                         1.625000       0.000000
                                                         0.472600       0.000000
                                                         0.140700       0.122831

                          2       1    1s                2.182000      -0.003807
                                                         0.432700       0.000323
                                                         0.157000      -0.000065

                          2       2    2s                2.182000       0.776829
                                                         0.432700       0.015086
                                                         0.157000      -0.001683

                          2       3    3s                2.182000      -0.502714
                                                         0.432700       0.240627
                                                         0.157000       0.098999

                          2       4    4s                2.182000       0.000000
                                                         0.432700       0.000000
                                                         0.157000       0.177760

                          3       1    1dx2              0.479000       0.453938
                          3       1    1dxy              0.479000       0.786244
                          3       1    1dxz              0.479000       0.786244
                          3       1    1dy2              0.479000       0.453938
                          3       1    1dyz              0.479000       0.786244
                          3       1    1dz2              0.479000       0.453938

     AE Potential information for                                            ALL

       Description:                                       All-electron potential
                                          Krack, Parrinello, PCCP 2, 2105 (2000)

       Gaussian exponent of the core charge distribution:               2.834467
       Electronic configuration (s p d ...):                           6  10   0

  2. Atomic kind: N                                     Number of atoms:       4

     Orbital Basis Set                                                   cc-pVDZ

       Number of orbital shell sets:                                           3
       Number of orbital shells:                                               6
       Number of primitive Cartesian functions:                               14
       Number of Cartesian basis functions:                                   15
       Number of spherical basis functions:                                   14
       Norm type:                                                              2

       Normalised Cartesian orbitals:

                        Set   Shell   Orbital            Exponent    Coefficient

                          1       1    1px              13.550000       1.479258
                                                         2.917000       1.180072
                                                         0.797300       0.548036
                                                         0.218500       0.098423
                          1       1    1py              13.550000       1.479258
                                                         2.917000       1.180072
                                                         0.797300       0.548036
                                                         0.218500       0.098423
                          1       1    1pz              13.550000       1.479258
                                                         2.917000       1.180072
                                                         0.797300       0.548036
                                                         0.218500       0.098423

                          1       2    2px              13.550000       0.000000
                                                         2.917000       0.000000
                                                         0.797300       0.000000
                                                         0.218500       0.212939
                          1       2    2py              13.550000       0.000000
                                                         2.917000       0.000000
                                                         0.797300       0.000000
                                                         0.218500       0.212939
                          1       2    2pz              13.550000       0.000000
                                                         2.917000       0.000000
                                                         0.797300       0.000000
                                                         0.218500       0.212939

                          2       1    1s             9046.000000       0.462754
                                                      1357.000000       0.858723
                                                       309.300000       1.440591
                                                        87.730000       2.108533
                                                        28.560000       2.454153
                                                        10.210000       1.825915
                                                         3.838000       0.543758
                                                         0.746600       0.008838
                                                         0.224800      -0.000666

                          2       2    2s             9046.000000      -0.101145
                                                      1357.000000      -0.192492
                                                       309.300000      -0.314968
                                                        87.730000      -0.501437
                                                        28.560000      -0.593976
                                                        10.210000      -0.643503
                                                         3.838000      -0.238093
                                                         0.746600       0.314268
                                                         0.224800       0.134678

                          2       3    3s             9046.000000       0.000000
                                                      1357.000000       0.000000
                                                       309.300000       0.000000
                                                        87.730000       0.000000
                                                        28.560000       0.000000
                                                        10.210000       0.000000
                                                         3.838000       0.000000
                                                         0.746600       0.000000
                                                         0.224800       0.232679

                          3       1    1dx2              0.817000       1.155575
                          3       1    1dxy              0.817000       2.001514
                          3       1    1dxz              0.817000       2.001514
                          3       1    1dy2              0.817000       1.155575
                          3       1    1dyz              0.817000       2.001514
                          3       1    1dz2              0.817000       1.155575

     RI Auxiliary Basis Set                                        cc-pVDZ-RIFIT

       Number of orbital shell sets:                                          18
       Number of orbital shells:                                              18
       Number of primitive Cartesian functions:                               18
       Number of Cartesian basis functions:                                   66
       Number of spherical basis functions:                                   56
       Norm type:                                                              2

       Normalised Cartesian orbitals:

                        Set   Shell   Orbital            Exponent    Coefficient

                          1       1    1s                0.327261       0.308376

                          2       1    1px               0.461104       0.541613
                          2       1    1py               0.461104       0.541613
                          2       1    1pz               0.461104       0.541613

                          3       1    1dx2              0.477850       0.452033
                          3       1    1dxy              0.477850       0.782943
                          3       1    1dxz              0.477850       0.782943
                          3       1    1dy2              0.477850       0.452033
                          3       1    1dyz              0.477850       0.782943
                          3       1    1dz2              0.477850       0.452033

                          4       1    1s                0.723539       0.559122

                          5       1    1px               1.094610       1.595932
                          5       1    1py               1.094610       1.595932
                          5       1    1pz               1.094610       1.595932

                          6       1    1s                1.123240       0.777615

                          7       1    1dx2              1.285370       2.553929
                          7       1    1dxy              1.285370       4.423534
                          7       1    1dxz              1.285370       4.423534
                          7       1    1dy2              1.285370       2.553929
                          7       1    1dyz              1.285370       4.423534
                          7       1    1dz2              1.285370       2.553929

                          8       1    1fx3              1.334730       2.818965
                          8       1    1fx2y             1.334730       6.303397
                          8       1    1fx2z             1.334730       6.303397
                          8       1    1fxy2             1.334730       6.303397
                          8       1    1fxyz             1.334730      10.917804
                          8       1    1fxz2             1.334730       6.303397
                          8       1    1fy3              1.334730       2.818965
                          8       1    1fy2z             1.334730       6.303397
                          8       1    1fyz2             1.334730       6.303397
                          8       1    1fz3              1.334730       2.818965

                          9       1    1s                2.344260       1.350251

                         10       1    1px               2.533640       4.556393
                         10       1    1py               2.533640       4.556393
                         10       1    1pz               2.533640       4.556393

                         11       1    1fx3              3.401180      23.127095
                         11       1    1fx2y             3.401180      51.713757
                         11       1    1fx2z             3.401180      51.713757
                         11       1    1fxy2             3.401180      51.713757
                         11       1    1fxyz             3.401180      89.570854
                         11       1    1fxz2             3.401180      51.713757
                         11       1    1fy3              3.401180      23.127095
                         11       1    1fy2z             3.401180      51.713757
                         11       1    1fyz2             3.401180      51.713757
                         11       1    1fz3              3.401180      23.127095

                         12       1    1dx2              3.428160      14.215638
                         12       1    1dxy              3.428160      24.622207
                         12       1    1dxz              3.428160      24.622207
                         12       1    1dy2              3.428160      14.215638
                         12       1    1dyz              3.428160      24.622207
                         12       1    1dz2              3.428160      14.215638

                         13       1    1s                7.624360       3.270112

                         14       1    1px               8.552990      20.849111
                         14       1    1py               8.552990      20.849111
                         14       1    1pz               8.552990      20.849111

                         15       1    1dx2             12.327800     133.493224
                         15       1    1dxy             12.327800     231.217046
                         15       1    1dxz             12.327800     231.217046
                         15       1    1dy2             12.327800     133.493224
                         15       1    1dyz             12.327800     231.217046
                         15       1    1dz2             12.327800     133.493224

                         16       1    1s               20.467900       6.858278

                         17       1    1px              29.237300      96.908455
                         17       1    1py              29.237300      96.908455
                         17       1    1pz              29.237300      96.908455

                         18       1    1s               87.686400      20.422517

       Atomic covalent radius [Angstrom]:                                  0.750

       Atomic van der Waals radius [Angstrom]:                             1.550

     The atoms of this atomic kind are PAW atoms (GAPW):
       Hard Gaussian function radius:                                      1.512
       Rho0 radius:                                                        1.512
       Maximum GTO radius used for PAW projector construction:            24.566

     GAPW Soft Basis Set                                            cc-pVDZ_soft

       Number of orbital shell sets:                                           3
       Number of orbital shells:                                               6
       Number of primitive Cartesian functions:                                7
       Number of Cartesian basis functions:                                   15
       Number of spherical basis functions:                                   14
       Norm type:                                                              2

       Normalised Cartesian orbitals:

                        Set   Shell   Orbital            Exponent    Coefficient

                          1       1    1px               2.917000       1.180072
                                                         0.797300       0.548036
                                                         0.218500       0.098423
                          1       1    1py               2.917000       1.180072
                                                         0.797300       0.548036
                                                         0.218500       0.098423
                          1       1    1pz               2.917000       1.180072
                                                         0.797300       0.548036
                                                         0.218500       0.098423

                          1       2    2px               2.917000       0.000000
                                                         0.797300       0.000000
                                                         0.218500       0.212939
                          1       2    2py               2.917000       0.000000
                                                         0.797300       0.000000
                                                         0.218500       0.212939
                          1       2    2pz               2.917000       0.000000
                                                         0.797300       0.000000
                                                         0.218500       0.212939

                          2       1    1s                3.838000       0.543758
                                                         0.746600       0.008838
                                                         0.224800      -0.000666

                          2       2    2s                3.838000      -0.238093
                                                         0.746600       0.314268
                                                         0.224800       0.134678

                          2       3    3s                3.838000       0.000000
                                                         0.746600       0.000000
                                                         0.224800       0.232679

                          3       1    1dx2              0.817000       1.155575
                          3       1    1dxy              0.817000       2.001514
                          3       1    1dxz              0.817000       2.001514
                          3       1    1dy2              0.817000       1.155575
                          3       1    1dyz              0.817000       2.001514
                          3       1    1dz2              0.817000       1.155575

     AE Potential information for                                            ALL

       Description:                                       All-electron potential
                                          Krack, Parrinello, PCCP 2, 2105 (2000)

       Gaussian exponent of the core charge distribution:               5.979100
       Electronic configuration (s p d ...):                           4   3   0

  3. Atomic kind: H                                     Number of atoms:       4

     Orbital Basis Set                                                   cc-pVDZ

       Number of orbital shell sets:                                           2
       Number of orbital shells:                                               3
       Number of primitive Cartesian functions:                                5
       Number of Cartesian basis functions:                                    5
       Number of spherical basis functions:                                    5
       Norm type:                                                              2

       Normalised Cartesian orbitals:

                        Set   Shell   Orbital            Exponent    Coefficient

                          1       1    1s               13.010000       0.096107
                                                         1.962000       0.163020
                                                         0.444600       0.185545
                                                         0.122000       0.073744

                          1       2    2s               13.010000       0.000000
                                                         1.962000       0.000000
                                                         0.444600       0.000000
                                                         0.122000       0.147123

                          2       1    1px               0.727000       0.956881
                          2       1    1py               0.727000       0.956881
                          2       1    1pz               0.727000       0.956881

     RI Auxiliary Basis Set                                        cc-pVDZ-RIFIT

       Number of orbital shell sets:                                           6
       Number of orbital shells:                                               6
       Number of primitive Cartesian functions:                                6
       Number of Cartesian basis functions:                                   15
       Number of spherical basis functions:                                   14
       Norm type:                                                              2

       Normalised Cartesian orbitals:

                        Set   Shell   Orbital            Exponent    Coefficient

                          1       1    1s                0.291662       0.282859

                          2       1    1px               0.986401       1.401222
                          2       1    1py               0.986401       1.401222
                          2       1    1pz               0.986401       1.401222

                          3       1    1s                1.142965       0.787834

                          4       1    1dx2              1.172083       2.173136
                          4       1    1dxy              1.172083       3.763982
                          4       1    1dxz              1.172083       3.763982
                          4       1    1dy2              1.172083       2.173136
                          4       1    1dyz              1.172083       3.763982
                          4       1    1dz2              1.172083       2.173136

                          5       1    1px               1.914964       3.211004
                          5       1    1py               1.914964       3.211004
                          5       1    1pz               1.914964       3.211004

                          6       1    1s                5.115890       2.424381

       Atomic covalent radius [Angstrom]:                                  0.320

       Atomic van der Waals radius [Angstrom]:                             1.090

     The atoms of this atomic kind are PAW atoms (GAPW):
       Hard Gaussian function radius:                                      1.200
       Rho0 radius:                                                        1.200
       Maximum GTO radius used for PAW projector construction:            24.566

     GAPW Soft Basis Set                                            cc-pVDZ_soft

       Number of orbital shell sets:                                           2
       Number of orbital shells:                                               3
       Number of primitive Cartesian functions:                                4
       Number of Cartesian basis functions:                                    5
       Number of spherical basis functions:                                    5
       Norm type:                                                              2

       Normalised Cartesian orbitals:

                        Set   Shell   Orbital            Exponent    Coefficient

                          1       1    1s                1.962000       0.163020
                                                         0.444600       0.185545
                                                         0.122000       0.073744

                          1       2    2s                1.962000       0.000000
                                                         0.444600       0.000000
                                                         0.122000       0.147123

                          2       1    1px               0.727000       0.956881
                          2       1    1py               0.727000       0.956881
                          2       1    1pz               0.727000       0.956881

     AE Potential information for                                            ALL

       Description:                                       All-electron potential
                                          Krack, Parrinello, PCCP 2, 2105 (2000)

       Gaussian exponent of the core charge distribution:              12.500000
       Electronic configuration (s p d ...):                           1   0   0


 MOLECULE KIND INFORMATION


 All atoms are their own molecule, skipping detailed information


 TOTAL NUMBERS AND MAXIMUM NUMBERS

  Total number of            - Atomic kinds:                                   3
                             - Atoms:                                         12
                             - Shell sets:                                    32
                             - Shells:                                        68
                             - Primitive Cartesian functions:                160
                             - Cartesian basis functions:                    156
                             - Spherical basis functions:                    148

  Maximum angular momentum of the orbital basis functions:                     2


 MODULE QUICKSTEP: ATOMIC COORDINATES IN ANGSTROM

   Atom Kind Element         X             Y             Z       Z(eff)     Mass
      1    1 S    16     13.957995     16.265518     13.490427  16.0000  32.0650
      2    1 S    16     13.957995     16.265518     16.509573  16.0000  32.0650
      3    2 N     7     13.357678     15.784517     15.000000   7.0000  14.0067
      4    3 H     1     12.726048     14.984704     15.000000   1.0000   1.0079
      5    3 H     1     14.999748     14.359726     12.641883   1.0000   1.0079
      6    3 H     1     14.999748     14.359726     17.358117   1.0000   1.0079
      7    1 S    16     16.869352     15.464850     13.490315  16.0000  32.0650
      8    1 S    16     16.869352     15.464850     16.509685  16.0000  32.0650
      9    2 N     7     17.139603     14.744712     15.000000   7.0000  14.0067
     10    2 N     7     15.248508     15.264728     13.039063   7.0000  14.0067
     11    2 N     7     15.248508     15.264728     16.960937   7.0000  14.0067
     12    3 H     1     17.273952     13.734482     15.000000   1.0000   1.0079



 SCF PARAMETERS         Density guess:                                    ATOMIC
                        --------------------------------------------------------
                        max_scf:                                             500
                        max_scf_history:                                       0
                        max_diis:                                              4
                        --------------------------------------------------------
                        eps_scf:                                        1.00E-06
                        eps_scf_history:                                0.00E+00
                        eps_diis:                                       1.00E-01
                        eps_eigval:                                     1.00E-05
                        --------------------------------------------------------
                        level_shift [a.u.]:                             0.000000
                        added MOs                                       100    0
                        --------------------------------------------------------
                        Mixing method:                            BROYDEN_MIXING
                                                charge density mixing in g-space
                        --------------------------------------------------------
                        No outer SCF

 PW_GRID| Information for grid number                                          1
 PW_GRID| Grid distributed over                                   216 processors
 PW_GRID| Real space group dimensions                                   216    1
 PW_GRID| the grid is blocked:                                                NO
 PW_GRID| Cutoff [a.u.]                                                    250.0
 PW_GRID| spherical cutoff:                                                   NO
 PW_GRID|   Bounds   1           -202     202                Points:         405
 PW_GRID|   Bounds   2           -202     202                Points:         405
 PW_GRID|   Bounds   3           -202     202                Points:         405
 PW_GRID| Volume element (a.u.^3)  0.2743E-02     Volume (a.u.^3)    182205.0337
 PW_GRID| Grid span                                                    FULLSPACE
 PW_GRID|   Distribution                         Average         Max         Min
 PW_GRID|   G-Vectors                           307546.9      307800      307395
 PW_GRID|   G-Rays                                 759.4         760         759
 PW_GRID|   Real Space Points                   307546.9      328050      164025

 PW_GRID| Information for grid number                                          2
 PW_GRID| Number of the reference grid                                         1
 PW_GRID| Grid distributed over                                   216 processors
 PW_GRID| Real space group dimensions                                   216    1
 PW_GRID| the grid is blocked:                                                NO
 PW_GRID| Cutoff [a.u.]                                                     83.3
 PW_GRID| spherical cutoff:                                                   NO
 PW_GRID|   Bounds   1           -120     119                Points:         240
 PW_GRID|   Bounds   2           -120     119                Points:         240
 PW_GRID|   Bounds   3           -120     119                Points:         240
 PW_GRID| Volume element (a.u.^3)  0.1318E-01     Volume (a.u.^3)    182205.0337
 PW_GRID| Grid span                                                    FULLSPACE
 PW_GRID|   Distribution                         Average         Max         Min
 PW_GRID|   G-Vectors                            64000.0       64560       63360
 PW_GRID|   G-Rays                                 266.7         269         264
 PW_GRID|   Real Space Points                    64000.0      115200       57600

 PW_GRID| Information for grid number                                          3
 PW_GRID| Number of the reference grid                                         1
 PW_GRID| Grid distributed over                                   216 processors
 PW_GRID| Real space group dimensions                                    12   18
 PW_GRID| the grid is blocked:                                                NO
 PW_GRID| Cutoff [a.u.]                                                     27.8
 PW_GRID| spherical cutoff:                                                   NO
 PW_GRID|   Bounds   1            -67      67                Points:         135
 PW_GRID|   Bounds   2            -67      67                Points:         135
 PW_GRID|   Bounds   3            -67      67                Points:         135
 PW_GRID| Volume element (a.u.^3)  0.7406E-01     Volume (a.u.^3)    182205.0337
 PW_GRID| Grid span                                                    FULLSPACE
 PW_GRID|   Distribution                         Average         Max         Min
 PW_GRID|   G-Vectors                            11390.6       11610       11205
 PW_GRID|   G-Rays                                  84.4          86          83
 PW_GRID|   Real Space Points                    11390.6       12960       10395

 PW_GRID| Information for grid number                                          4
 PW_GRID| Number of the reference grid                                         1
 PW_GRID| Grid distributed over                                   216 processors
 PW_GRID| Real space group dimensions                                    12   18
 PW_GRID| the grid is blocked:                                                NO
 PW_GRID| Cutoff [a.u.]                                                      9.3
 PW_GRID| spherical cutoff:                                                   NO
 PW_GRID|   Bounds   1            -40      39                Points:          80
 PW_GRID|   Bounds   2            -40      39                Points:          80
 PW_GRID|   Bounds   3            -40      39                Points:          80
 PW_GRID| Volume element (a.u.^3)  0.3559         Volume (a.u.^3)    182205.0337
 PW_GRID| Grid span                                                    FULLSPACE
 PW_GRID|   Distribution                         Average         Max         Min
 PW_GRID|   G-Vectors                             2370.4        2480        2240
 PW_GRID|   G-Rays                                  29.6          31          28
 PW_GRID|   Real Space Points                     2370.4        2800        1920

 POISSON| Solver                                                         WAVELET
 POISSON| Wavelet| Scaling function                                           40
 POISSON| Periodicity                                                       NONE

 RS_GRID| Information for grid number                                          1
 RS_GRID|   Bounds   1           -202     202                Points:         405
 RS_GRID|   Bounds   2           -202     202                Points:         405
 RS_GRID|   Bounds   3           -202     202                Points:         405
 RS_GRID| Real space distribution over                                  6 groups
 RS_GRID| Real space distribution along direction                              1
 RS_GRID| Border size                                                         33
 RS_GRID| Real space distribution over                                  6 groups
 RS_GRID| Real space distribution along direction                              2
 RS_GRID| Border size                                                         33
 RS_GRID| Real space distribution over                                  6 groups
 RS_GRID| Real space distribution along direction                              3
 RS_GRID| Border size                                                         33
 RS_GRID|   Distribution                         Average         Max         Min
 RS_GRID|   Planes                                 133.5         134         133
 RS_GRID|   Distribution                         Average         Max         Min
 RS_GRID|   Planes                                 133.5         134         133
 RS_GRID|   Distribution                         Average         Max         Min
 RS_GRID|   Planes                                 133.5         134         133

 RS_GRID| Information for grid number                                          2
 RS_GRID|   Bounds   1           -120     119                Points:         240
 RS_GRID|   Bounds   2           -120     119                Points:         240
 RS_GRID|   Bounds   3           -120     119                Points:         240
 RS_GRID| Real space distribution over                                  6 groups
 RS_GRID| Real space distribution along direction                              1
 RS_GRID| Border size                                                         34
 RS_GRID| Real space distribution over                                  6 groups
 RS_GRID| Real space distribution along direction                              2
 RS_GRID| Border size                                                         34
 RS_GRID| Real space distribution over                                  6 groups
 RS_GRID| Real space distribution along direction                              3
 RS_GRID| Border size                                                         34
 RS_GRID|   Distribution                         Average         Max         Min
 RS_GRID|   Planes                                 108.0         108         108
 RS_GRID|   Distribution                         Average         Max         Min
 RS_GRID|   Planes                                 108.0         108         108
 RS_GRID|   Distribution                         Average         Max         Min
 RS_GRID|   Planes                                 108.0         108         108

 RS_GRID| Information for grid number                                          3
 RS_GRID|   Bounds   1            -67      67                Points:         135
 RS_GRID|   Bounds   2            -67      67                Points:         135
 RS_GRID|   Bounds   3            -67      67                Points:         135
 RS_GRID| Real space fully replicated
 RS_GRID| Group size                                                           1

 RS_GRID| Information for grid number                                          4
 RS_GRID|   Bounds   1            -40      39                Points:          80
 RS_GRID|   Bounds   2            -40      39                Points:          80
 RS_GRID|   Bounds   3            -40      39                Points:          80
 RS_GRID| Real space fully replicated
 RS_GRID| Group size                                                           1

  HFX_INFO| Replica ID:                                                        1
  HFX_INFO| FRACTION:                                               0.2500000000
  HFX_INFO| Interaction Potential:                                       COULOMB
  HFX_INFO| EPS_SCHWARZ:                                                 1.0E-10
  HFX_INFO| EPS_SCHWARZ_FORCES                                           1.0E-08
  HFX_INFO| EPS_STORAGE_SCALING:                                         1.0E+00
  HFX_INFO| NBINS:                                                            64
  HFX_INFO| BLOCK_SIZE:                                                        1
  HFX_INFO| Number of periodic shells considered:                           NONE
  HFX_INFO| Number of periodic cells considered:                            NONE


 OVERLAP MATRIX CONDITION NUMBER
 1-Norm Condition Number (Estimate)
   CN : |A|*|A^-1|:  1.065E+001 *  4.315E+002   = 4.596E+003  Log(1-CN):  3.6624
 1-Norm and 2-Norm Condition Numbers using Diagonalization
   CN : |A|*|A^-1|:  1.065E+001 *  4.319E+002   = 4.600E+003  Log(1-CN):  3.6627
   CN : max/min ev:  5.522E+000 /  6.434E-003   = 8.583E+002  Log(2-CN):  2.9337

 Number of electrons:                                                         96
 Number of occupied orbitals:                                                 48
 Number of molecular orbitals:                                               148

 Number of orbital functions:                                                148
 Number of independent orbital functions:                                    148

 Extrapolation method: initial_guess

 Atomic guess: The first density matrix is obtained in terms of atomic orbitals
               and electronic configurations assigned to each atomic kind

 Guess for atomic kind: S

 Electronic structure
    Total number of core electrons                                          0.00
    Total number of valence electrons                                      16.00
    Total number of electrons                                              16.00
    Multiplicity                                                   not specified
    S      2.00  2.00  2.00
    P      6.00  4.00


 *******************************************************************************
                  Iteration          Convergence                     Energy [au]
 *******************************************************************************
                          1        0.498472                    -396.671610213767
                          2        0.106937                    -396.679748751974
                          3        0.367668E-01                -396.682615387451
                          4        0.752479E-04                -396.683034497458
                          5        0.757894E-06                -396.683034498805

 Energy components [Hartree]           Total Energy ::         -396.683034498805
                                        Band Energy ::         -227.641434584610
                                     Kinetic Energy ::          396.927832724870
                                   Potential Energy ::         -793.610867223676
                                      Virial (-V/T) ::            1.999383267673
                                        Core Energy ::         -549.327926755470
                                          XC Energy ::          -24.173648802970
                                     Coulomb Energy ::          176.818541059635

 Orbital energies  State     L     Occupation   Energy[a.u.]          Energy[eV]

                       1     0          2.000     -87.772958        -2388.423660
                       2     0          2.000      -7.690598         -209.271802
                       3     0          2.000      -0.621647          -16.915873

                       1     1          6.000      -5.744180         -156.307098
                       2     1          4.000      -0.251487           -6.843300


 Total Electron Density at R=0:                                      2595.898576

 Guess for atomic kind: N

 Electronic structure
    Total number of core electrons                                          0.00
    Total number of valence electrons                                       7.00
    Total number of electrons                                               7.00
    Multiplicity                                                   not specified
    S      2.00  2.00
    P      3.00


 *******************************************************************************
                  Iteration          Convergence                     Energy [au]
 *******************************************************************************
                          1        0.301551                     -53.973815306340
                          2        0.236385                     -53.983090543973
                          3        0.208022E-03                 -53.998986912883
                          4        0.118436E-04                 -53.998986915072
                          5        0.107309E-07                 -53.998986915114

 Energy components [Hartree]           Total Energy ::          -53.998986915114
                                        Band Energy ::          -29.999077661618
                                     Kinetic Energy ::           54.085149820813
                                   Potential Energy ::         -108.084136735928
[...]
 pw_poisson_solve                   211  9.5    1.849    2.123   57.633   58.223
 tddfpt_apply_coulomb               160  9.0    0.003    0.004   54.488   54.993
 scf_env_do_scf                       1  3.0    0.000    0.000   53.754   53.757
 scf_env_do_scf_inner_loop           51  4.0    0.001    0.003   53.754   53.757
 mp_alltoall_z22v                  4285 15.1   33.123   41.101   33.123   41.101
 qs_ks_update_qs_env                 51  5.0    0.000    0.000   39.982   39.986
 rebuild_ks_matrix                   51  6.0    0.000    0.000   39.977   39.981
 qs_ks_build_kohn_sham_matrix        51  7.0    0.008    0.009   39.977   39.981
 ps_wavelet_solve                   211 10.5   21.424   30.833   36.099   36.308
 qs_rho_update_rho_low              213  8.0    0.002    0.003   35.263   35.267
 calculate_rho_elec                 213  9.0    0.465    0.499   33.579   33.584
 mp_alltoall_d54                    211 11.5   11.607   28.767   11.607   28.767
 xc_pw_derive                      1269 11.0    0.012    0.015   27.274   28.464
 tddfpt_apply_xc_analytic           160  9.0    0.111    0.142   24.858   24.978
 density_rs2pw                      213 10.0    0.012    0.015   21.619   22.612
 x_to_yz                           1743 13.8    2.037    2.295   20.356   21.927
 integrate_four_center              371  9.9    7.439   16.046   20.964   21.070
 yz_to_x                           1694 14.6    1.591    1.955   16.254   20.842
 integrate_v_rspace                 211  9.0    0.005    0.007   19.663   19.706
 tddfpt_apply_hfx                     8  8.0    0.003    0.003   19.252   19.252
 xc_pw_divergence                   211 10.8    0.007    0.008   18.266   19.224
 potential_pw2rs                    211 10.0    0.044    0.059   17.502   17.609
 transfer_pw2rs                    1056 10.9    0.014    0.018   16.755   16.976
 mp_sync                           1963 11.5    9.515   16.877    9.515   16.877
 transfer_rs2pw                    1065 11.0    0.028    0.050   15.367   16.349
 tddft_hfx_matrix                   320  9.0    0.008    0.009   15.469   15.558
 xc_calc_2nd_deriv_analytical      1120 10.1    0.774    0.890   14.559   14.698
 grid_collocate_task_list           213 10.0   11.090   12.163   11.090   12.163
 mp_waitany                       53466 12.9   10.269   11.629   10.269   11.629
 prepare_gapw_den                   212  8.8    0.004    0.004   10.279   10.415
 mp_alltoall_d11v                 14016 11.7    7.389   10.132    7.389   10.132
 qs_vxc_create                       51  8.0    0.001    0.001    9.429    9.431
 xc_vxc_pw_create                    51  9.0    0.143    0.162    9.428    9.430
 transfer_pw2rs_250                 423 11.7    2.856    3.226    8.977    9.177
 put_rho0_on_grid                   212  9.8    0.488    0.594    9.019    9.155
 transfer_rs2pw_250                 426 11.9    3.024    3.318    7.465    8.580
 integrate_vhg0_rspace              211  9.5    0.113    0.168    8.192    8.197
 cp_dbcsr_sm_fm_multiply           1006  8.6    0.020    0.021    7.271    7.368
 hfx_ks_matrix                       51  8.0    0.002    0.002    5.506    5.545
 dbcsr_complete_redistribute       3310 10.5    0.134    0.175    4.942    5.048
 calculate_xc_2nd_deriv_atom        160  9.0    0.043    1.127    0.130    5.012
 mp_alltoall_d45                    212 11.5    2.967    4.941    2.967    4.941
 sum_up_and_integrate                51  8.0    0.000    0.001    4.877    4.900
 mp_waitall_1                    443054 13.2    3.833    4.738    3.833    4.738
 mp_sum_d                          3014  7.8    2.694    4.725    2.694    4.725
 xc_rho_set_and_dset_create          52 10.0    0.120    0.148    4.403    4.706
 transfer_rs2pw_30                  213 12.0    2.008    2.101    4.581    4.679
 transfer_pw2rs_30                  211 12.0    1.929    2.072    4.359    4.554
 gaVxcgb_GC                         633  9.8    0.083    4.511    0.083    4.511
 mp_sum_dm                         7724 10.2    4.008    4.198    4.008    4.198
 gspace_mixing                       50  5.0    0.109    0.117    3.843    3.843
 mp_sendrecv_dv                   91590 13.0    3.426    3.567    3.426    3.567
 copy_dbcsr_to_fm                  1079  9.3    0.015    0.015    3.341    3.376
 copy_fm_to_dbcsr                  2229  9.6    0.010    0.011    3.229    3.339
 pw_scatter_p                      2165 12.8    2.773    3.210    2.773    3.210
 dbcsr_multiply_generic            1377 10.3    0.060    0.065    2.760    2.836
 broyden_mixing                      50  6.0    2.651    2.723    2.751    2.791
 pw_gather_p                       2120 13.5    2.329    2.768    2.329    2.768
 cp2k_distribution_to_z_slices      211 10.5    0.986    1.074    2.163    2.672
 mp_isendrecv_dv                 250260 12.3    1.454    2.527    1.454    2.527
 mp_alltoall_i11v                 11010 11.5    2.463    2.466    2.463    2.466
 fft_wrap_pw1pw2_90                 424 12.0    0.063    0.095    2.070    2.328
 transfer_pw2rs_90                  211 12.0    0.469    0.540    2.025    2.216
 rs_grid_zero                      1058 11.9    2.105    2.214    2.105    2.214
 pw_derive                         1902 11.8    2.079    2.213    2.079    2.213
 rs_gather_matrices                 211 10.0    0.003    0.007    2.044    2.194
 transfer_rs2pw_90                  213 12.0    0.477    0.535    1.922    2.188
 cp_dbcsr_sm_fm_multiply_core      1006  9.6    0.003    0.003    1.931    1.992
 grid_integrate_task_list           211 10.0    0.112    1.986    0.112    1.986
 create_qs_kind_set                   1  2.0    0.000    0.000    1.761    1.762
 read_qs_kind                         3  3.0    0.955    1.004    1.761    1.762
 multiply_cannon                   1377 11.3    0.169    0.174    1.638    1.689
 calculate_rho_atom_coeff           213  9.0    0.033    0.067    1.681    1.682
 cp_fm_syevd                        101  7.2    0.001    0.001    1.639    1.644
 tddfpt_orthonormalize_psi1_psi       9  6.9    0.019    0.021    1.588    1.588
 dbcsr_desymmetrize_deep           1080 10.3    0.030    0.034    1.544    1.577
 pw_copy                           2850 11.0    1.424    1.546    1.424    1.546
 cp_fm_redistribute_end             101  8.2    0.797    1.513    0.802    1.520
 qs_scf_new_mos                      51  5.0    0.001    0.001    1.448    1.452
 cp_dbcsr_plus_fm_fm_t              211  8.5    0.003    0.003    1.421    1.434
 cp_fm_syevd_base                   101  8.2    0.713    1.429    0.713    1.429
 transfer_pw2rs_10                  211 12.0    0.507    0.616    1.380    1.423
 transfer_rs2pw_10                  213 12.0    0.517    0.556    1.371    1.404
 powell_optimize                 528718 11.0    1.297    1.376    1.297    1.376
 calculate_vxc_atom                  51  8.0    0.025    0.198    1.367    1.368
 pw_copy_to_array                  2120 13.5    0.929    1.363    0.929    1.363
 mp_isend_dv                     143224 13.9    0.859    1.337    0.859    1.337
 multiply_cannon_loop              1377 12.3    0.317    0.336    1.244    1.314
 integrate_four_center_main         371 10.9    0.056    0.545    0.476    1.297
 pw_poisson_set                     212 10.5    0.005    0.006    1.243    1.264
 tddfpt_apply_energy_diff             8  8.0    0.001    0.001    1.257    1.257
 integrate_four_center_bin        37086 11.9    0.420    1.216    0.420    1.216
 parallel_gemm_fm                  1466  8.3    0.002    0.002    1.157    1.174
 parallel_gemm_fm_gemm             1466  9.3    0.002    0.002    1.155    1.172
 cp_fm_gemm                        1466 10.3    1.153    1.170    1.153    1.170
 xc_functional_eval                1318 10.9    0.000    0.004    0.705    1.165
 pbe_lda_eval                      1318 11.9    0.705    1.161    0.705    1.161
 calculate_rho_atom                 636  9.8    0.590    1.119    0.590    1.119
 tddfpt_print_nto_analysis            1  6.0    0.002    0.003    1.104    1.105
 calc_screening_functions             1 10.0    0.379    0.389    1.032    1.073
 tddfpt_compute_residual_vects        7  7.0    0.001    0.001    1.036    1.036
 calc_pair_dist_radii                 1 10.0    0.293    0.310    0.937    1.036
 eigensolver_symm                    51  6.0    0.002    0.002    1.004    1.006
 pw_integral_ab_c1d_c1d_gs          211 10.5    0.686    0.692    0.906    0.980
 mp_irecv_dm3                      7638 12.9    0.487    0.954    0.487    0.954
 Vh_1c_gg_integrals                 211  9.5    0.020    0.236    0.414    0.925
 mp_isend_dm3                      7638 12.9    0.432    0.910    0.432    0.910
 pw_axpy                           2278 10.9    0.801    0.898    0.801    0.898
 mp_sum_dv                        15319  9.0    0.861    0.896    0.861    0.896
 fft_wrap_pw1pw2_30                 424 12.0    0.012    0.013    0.829    0.860
 mp_alltoall_z11v                   848 15.0    0.817    0.850    0.817    0.850
 make_m2s                          2754 11.3    0.052    0.055    0.775    0.836
 parser_read_line                203064  4.0    0.068    0.075    0.806    0.823
 pw_copy_from_array                2165 12.8    0.647    0.806    0.647    0.806
 integrate_four_center_getP         371 10.9    0.125    0.137    0.787    0.794
 pw_zero                           2392 10.6    0.683    0.792    0.683    0.792
 hybrid_alltoall_any               3834 13.5    0.035    0.043    0.760    0.788
 integrate_four_center_dist_KS      371 10.9    0.124    0.138    0.780    0.783
 mp_max_i                           712  4.6    0.275    0.766    0.275    0.766
 parser_read_line_low               222  5.0    0.065    0.324    0.738    0.757
 broadcast_input_information        222  6.0    0.155    0.172    0.673    0.721
 mp_alltoall_i22                   4390 11.5    0.603    0.716    0.603    0.716
 make_images                       2754 12.3    0.155    0.158    0.639    0.680
 pw_poisson_rebuild                 211 10.5    0.000    0.000    0.609    0.633
 ps_wavelet_create                    1 10.0    0.000    0.000    0.609    0.632
 RS_z_slice_distribution              1 11.0    0.497    0.594    0.609    0.632
 yz_to_xz                           422 14.0    0.038    0.043    0.513    0.544
 cp_fm_geeig                         20  7.0    0.001    0.001    0.487    0.492
 fft_wrap_pw1pw2_10                 424 12.0    0.004    0.004    0.428    0.433
 xc_2nd_deriv_of_r                  960 10.0    0.001    0.079    0.008    0.433
 xz_to_yz                           426 14.0    0.025    0.030    0.368    0.372
 mp_bcast_i_src                     888  7.0    0.228    0.367    0.228    0.367
 mp_rank_compare                   4285 14.1    0.350    0.367    0.350    0.367
 cp_fm_trace_a1b1t1_aa            13090  8.0    0.062    0.066    0.342    0.346
 mp_bcast_am_src                    222  7.0    0.261    0.308    0.280    0.335
 init_scf_run                         1  3.0    0.000    0.000    0.294    0.294
 multiply_cannon_metrocomm4       46818 13.3    0.138    0.144    0.263    0.291
 make_images_sizes                 2754 13.3    0.003    0.003    0.270    0.288
 qs_energies_init_hamiltonians        1  3.0    0.000    0.000    0.288    0.288
 mp_sum_l                          5305 10.5    0.253    0.287    0.253    0.287
 mp_alltoall_i44                   2754 14.3    0.266    0.285    0.266    0.285
 calculate_dm_sparse                 51  6.0    0.000    0.000    0.279    0.283
 multiply_cannon_metrocomm3       49572 13.3    0.080    0.083    0.215    0.282
 build_core_hamiltonian_matrix        1  4.0    0.000    0.000    0.276    0.276
 overlap_condnum                      1  5.0    0.000    0.000    0.274    0.274
 prepare_dr1dr                     1120 11.1    0.237    0.267    0.237    0.267
 scf_env_initial_rho_setup            1  4.0    0.000    0.000    0.265    0.266
 multiply_cannon_metrocomm2       45441 13.3    0.135    0.143    0.240    0.258
 tddfpt_construct_ground_state_       1  6.0    0.000    0.000    0.249    0.252
 mp_cart_sub                       2162 11.3    0.235    0.237    0.235    0.237
 scale_and_distribute               422 11.5    0.213    0.231    0.213    0.231
 dbcsr_finalize                    7487 11.4    0.036    0.048    0.166    0.216
 multiply_cannon_metrocomm1       49572 13.3    0.057    0.059    0.135    0.199
 qs_init_subsys                       1  2.0    0.006    0.010    0.185    0.185
 mp_cart_create                    1717 10.7    0.157    0.178    0.158    0.180
 qs_env_setup                         1  3.0    0.000    0.000    0.174    0.177
 qs_env_rebuild_pw_env                2  3.5    0.000    0.000    0.173    0.176
 pw_env_rebuild                       1  5.0    0.001    0.001    0.172    0.176
 arnoldi_conjugate_gradient           5  6.0    0.004    0.005    0.175    0.176
 update_ks_atom                     211  8.8    0.024    0.044    0.144    0.161
 pw_grid_setup                        4  6.0    0.000    0.000    0.152    0.156
 pw_grid_setup_internal               4  7.0    0.003    0.004    0.152    0.156
 mp_allgather_i34                  1377 12.3    0.134    0.151    0.134    0.151
 integrate_four_center_load         371 10.9    0.001    0.002    0.117    0.150
 hfx_load_balance                     1 11.0    0.000    0.000    0.116    0.149
 dbcsr_create_new                 30668 12.0    0.108    0.113    0.142    0.149
 rs_scatter_matrices                213 10.0    0.002    0.004    0.141    0.146
 multiply_cannon_multrec          49572 13.3    0.068    0.136    0.074    0.142
 make_images_data                  2754 13.3    0.034    0.046    0.079    0.132
 calculate_rho0_atom                636  9.8    0.128    0.130    0.128    0.130
 cp_fm_redistribute_start           101  8.2    0.100    0.102    0.124    0.129
 hfx_load_balance_range               1 12.0    0.000    0.000    0.095    0.129
 dbcsr_merge_all                   5852 12.5    0.072    0.088    0.094    0.125
 tddfpt_compute_ritz_vects            8  7.0    0.006    0.007    0.124    0.125
 mp_bcast_dm                       5064  9.8    0.120    0.122    0.120    0.122
 create_kernel_env                    1  6.0    0.000    0.000    0.105    0.117
 xc_prep_2nd_deriv                    1  7.0    0.000    0.000    0.105    0.117
 rs_grid_create                     217 10.4    0.001    0.002    0.013    0.114
 mp_irecv_dv                     143597 13.9    0.092    0.114    0.092    0.114
 offload_create_buffer              219 11.4    0.012    0.113    0.012    0.113
 dbcsr_sym_matrix_vector_mult       582  7.0    0.009    0.011    0.088    0.108
 pw_scale                           524  9.5    0.090    0.106    0.090    0.106
 dbcsr_special_finalize            6885 13.3    0.027    0.028    0.076    0.100
 tddfpt_orthogonalize_psi1_psi0       9  6.9    0.000    0.000    0.084    0.093
 cube_transpose_2                   426 14.0    0.008    0.009    0.084    0.092
 vxc_of_r_new                       306  9.0    0.000    0.013    0.002    0.088
 mp_isend_iv                      99408 14.3    0.074    0.082    0.074    0.082
 cube_transpose_1                   422 14.0    0.007    0.009    0.074    0.078
 copy_fm_to_dbcsr_bc               2229 10.6    0.024    0.027    0.070    0.077
 pw_grid_sort                         4  8.0    0.043    0.045    0.067    0.073
 mp_bcast_iv_src                    222  7.0    0.011    0.065    0.011    0.065
 dbcsr_destroy                    29457 11.2    0.038    0.040    0.055    0.064
 dbcsr_iterator_start             30932 11.5    0.038    0.049    0.047    0.064
 dbcsr_merge_single_wm             6885 14.3    0.034    0.041    0.040    0.064
 dbcsr_make_images_dense            742 11.7    0.013    0.016    0.037    0.062
 scf_post_calculation_gpw             1  3.0    0.000    0.000    0.056    0.058
 write_available_results              1  4.0    0.000    0.000    0.056    0.058
 write_mo_free_results                1  5.0    0.003    0.006    0.056    0.058
 dbcsr_add_d                        909  7.1    0.001    0.001    0.008    0.057
 dbcsr_add_anytype                  909  8.1    0.001    0.007    0.007    0.056
 mp_cart_rank                    182772 11.0    0.048    0.055    0.048    0.055
 dbcsr_work_create                13817 12.5    0.031    0.034    0.045    0.054
 dbcsr_data_new                   98411 12.7    0.046    0.053    0.046    0.053
 mp_bcast_iv                        277  6.8    0.020    0.053    0.020    0.053
 dbcsr_data_release              148232 12.7    0.043    0.052    0.043    0.052
 tddfpt_is_nonorthogonal_psi1_p       7  7.0    0.000    0.001    0.049    0.049
 dbcsr_copy                        5736  9.6    0.017    0.021    0.041    0.048
 mp_irecv_iv                     100521 14.3    0.040    0.047    0.040    0.047
 dbcsr_col_vec_to_rep_row           582  8.0    0.004    0.005    0.028    0.045
 mixing_init                          1  5.0    0.041    0.045    0.045    0.045
 dbcsr_work_destroy_all           13817 13.5    0.027    0.032    0.037    0.043
 cp_fm_cholesky_decompose            20  8.0    0.042    0.042    0.042    0.042
 dbcsr_iterator_stop              30932 11.5    0.028    0.034    0.034    0.042
 cp_fm_triangular_multiply           60  8.0    0.034    0.039    0.034    0.039
 dbcsr_rep_row_to_rep_col_vec       582  8.0    0.003    0.004    0.016    0.039
 cp_fm_symm                          51  7.0    0.036    0.038    0.036    0.038
 setup_buffer_matrices             2754 12.3    0.011    0.012    0.035    0.038
 dbcsr_make_dense_low              1855 12.7    0.009    0.010    0.014    0.038
 mp_maxloc_dv                      1251  1.0    0.034    0.037    0.034    0.037
 mp_sum_iv                          664  7.4    0.030    0.037    0.030    0.037
 mp_sum_im                          106  9.0    0.029    0.037    0.029    0.037
 cp_fm_write_unformatted             23  7.0    0.031    0.034    0.031    0.035
 mp_bcast_dv                        683  9.0    0.015    0.035    0.015    0.035
 cp_fm_power                          1  6.0    0.000    0.000    0.035    0.035
 tddfpt_dipole_operator               1  5.0    0.000    0.001    0.032    0.032
 cp_fm_triangular_invert             20  8.0    0.031    0.031    0.031    0.031
 pw_grid_distribute                   4  8.0    0.010    0.010    0.018    0.031
 tddfpt_print_excitation_analys       1  6.0    0.000    0.007    0.028    0.028
 sort_shells                          4  9.0    0.024    0.028    0.024    0.028
 hirshfeld_integration                1  6.0    0.001    0.008    0.026    0.027
 pw_pool_create_pw                 7376 10.8    0.016    0.019    0.022    0.026
 tddfpt_write_restart                 1  6.0    0.000    0.001    0.024    0.025
 dbcsr_mm_multrec_init             1377 12.3    0.003    0.003    0.021    0.024
 make_dense_data                   1855 13.7    0.001    0.010    0.002    0.023
 calculate_hirshfeld_normalizat       1  6.0    0.001    0.008    0.021    0.023
 dbcsr_make_untransposed_blocks    2228 11.4    0.013    0.014    0.021    0.022
 -------------------------------------------------------------------------------

 The number of warnings for this run is : 1
 
 -------------------------------------------------------------------------------
  **** **** ******  **  PROGRAM ENDED AT                 2025-04-02 18:14:29.967
 ***** ** ***  *** **   PROGRAM RAN ON                              i05r01c04s01
 **    ****   ******    PROGRAM RAN BY                                   di38fab
 ***** **    ** ** **   PROGRAM PROCESS ID                                644531
  **** **  *******  **  PROGRAM STOPPED IN /hppfs/scratch/04/di38fab/07_MOL_non_
                                           aug/05_MOL_non_aug/05_MOL/aUKBqsEOTmq
                                           69kFe5R_nOg/5k_set_final_qzvp/GIRRII0
                                           1/cc-pVDZ/TDDFT
