SIRIUS 7.5.2, git hash: https://api.github.com/repos/electronic-structure/SIRIUS/git/ref/tags/v7.5.2
 DBCSR| CPU Multiplication driver                                           XSMM (U)
 DBCSR| Multrec recursion limit                                              512 (U)
 DBCSR| Multiplication stack size                                           1000 (D)
 DBCSR| Maximum elements for images                                    UNLIMITED (U)
 DBCSR| Multiplicative factor virtual images                                   1 (U)
 DBCSR| Use multiplication densification                                       T (D)
 DBCSR| Multiplication size stacks                                             3 (U)
 DBCSR| Use memory pool for CPU allocation                                     F (U)
 DBCSR| Number of 3D layers                                               SINGLE (U)
 DBCSR| Use MPI memory allocation                                              F (U)
 DBCSR| Use RMA algorithm                                                      F (U)
 DBCSR| Use Communication thread                                               T (U)
 DBCSR| Communication thread load                                             75 (D)
 DBCSR| MPI: My process id                                                     0
 DBCSR| MPI: Number of processes                                             192
 DBCSR| OMP: Current number of threads                                         4
 DBCSR| OMP: Max number of threads                                             4
 DBCSR| Split modifier for TAS multiplication algorithm                  1.0E+00 (U)


  **** **** ******  **  PROGRAM STARTED AT               2025-03-15 09:34:52.647
 ***** ** ***  *** **   PROGRAM STARTED ON                              n2cn0813
 **    ****   ******    PROGRAM STARTED BY                              metdyn02
 ***** **    ** ** **   PROGRAM PROCESS ID                               4094763
  **** **  *******  **  PROGRAM STARTED IN /scratch/hpc-prf-metdyn/metdyn02_Remi
                                           /10_MOL/05_MOL/aUKBqsEOTmq69kFe5R_nOg
                                           /5k_set_final_qzvp/WEVSAS/SZV/GW+BSE/
                                           RILIM

 CP2K| version string:                 CP2K version 2025.1 (Development Version)
 CP2K| source code revision number:                                  git:f0c7327
 CP2K| cp2kflags: omp libint fftw3 libxc libgrpp elpa parallel scalapack mpi_f08
 CP2K|             cosma xsmm plumed2 spglib sirius libvori libbqb libvdwxc hdf5
 CP2K| is freely available from                            https://www.cp2k.org/
 CP2K| Program compiled at                          Wed Mar 12 18:25:30 CET 2025
 CP2K| Program compiled on                                              n2login1
 CP2K| Program compiled for                                                local
 CP2K| Data directory path    /opt/software/pc2/EB-SW/software/CP2K/2024.1-foss-
 CP2K| Input file name                                                    GW.inp

 GLOBAL| Force Environment number                                              1
 GLOBAL| Basis set file name            /scratch/hpc-prf-metdyn/metdyn02_Remi/BA
 GLOBAL| Potential file name            /pc2/groups/hpc-prf-metdyn/metdyn02_Remi
 GLOBAL| MM Potential file name                                     MM_POTENTIAL
 GLOBAL| Coordinate file name                                      __STD_INPUT__
 GLOBAL| Method name                                                        CP2K
 GLOBAL| Project name                                                       MoS2
 GLOBAL| Run type                                                         ENERGY
 GLOBAL| FFT library                                                       FFTW3
 GLOBAL| Diagonalization library                                            ELPA
 GLOBAL| DGEMM library                                                      BLAS
 GLOBAL| Minimum number of eigenvectors for ELPA usage                        16
 GLOBAL| Orthonormality check for eigenvectors                          DISABLED
 GLOBAL| Matrix multiplication library                                     COSMA
 GLOBAL| All-to-all communication in single precision                          F
 GLOBAL| FFTs using library dependent lengths                                  F
 GLOBAL| Grid backend                                                       AUTO
 GLOBAL| Global print level                                               MEDIUM
 GLOBAL| MPI I/O enabled                                                       T
 GLOBAL| Total number of message passing processes                           192
 GLOBAL| Number of threads for this process                                    4
 GLOBAL| This output is from process                                           0
 GLOBAL| OpenMP stack size per thread (OMP_STACKSIZE)                    default
 GLOBAL| CPU model name                          AMD EPYC 7763 64-Core Processor
 GLOBAL| CPUID                                                              1002

 MEMORY| system memory details [Kb]
 MEMORY|                        rank 0           min           max       average
 MEMORY| MemTotal            263899260     263899260     263899264     263899262
 MEMORY| MemFree             242093836     238925736     244669848     242292309
 MEMORY| Buffers                136120         44168        260040        150666
 MEMORY| Cached                7523820       6462992       9859152       7545234
 MEMORY| Slab                  2622680       1746624       3146260       2470024
 MEMORY| SReclaimable           638180        342572        856704        557102
 MEMORY| MemLikelyFree       250391956     249865524     251963868     250545312


 *** Fundamental physical constants (SI units) ***

 *** Literature: B. J. Mohr and B. N. Taylor,
 ***             CODATA recommended values of the fundamental physical
 ***             constants: 2006, Web Version 5.1
 ***             http://physics.nist.gov/constants

 Speed of light in vacuum [m/s]                             2.99792458000000E+08
 Magnetic constant or permeability of vacuum [N/A**2]       1.25663706143592E-06
 Electric constant or permittivity of vacuum [F/m]          8.85418781762039E-12
 Planck constant (h) [J*s]                                  6.62606896000000E-34
 Planck constant (h-bar) [J*s]                              1.05457162825177E-34
 Elementary charge [C]                                      1.60217648700000E-19
 Electron mass [kg]                                         9.10938215000000E-31
 Electron g factor [ ]                                     -2.00231930436220E+00
 Proton mass [kg]                                           1.67262163700000E-27
 Fine-structure constant                                    7.29735253760000E-03
 Rydberg constant [1/m]                                     1.09737315685270E+07
 Avogadro constant [1/mol]                                  6.02214179000000E+23
 Boltzmann constant [J/K]                                   1.38065040000000E-23
 Atomic mass unit [kg]                                      1.66053878200000E-27
 Bohr radius [m]                                            5.29177208590000E-11

 *** Conversion factors ***

 [u] -> [a.u.]                                              1.82288848426455E+03
 [Angstrom] -> [Bohr] = [a.u.]                              1.88972613288564E+00
 [a.u.] = [Bohr] -> [Angstrom]                              5.29177208590000E-01
 [a.u.] -> [s]                                              2.41888432650478E-17
 [a.u.] -> [fs]                                             2.41888432650478E-02
 [a.u.] -> [J]                                              4.35974393937059E-18
 [a.u.] -> [N]                                              8.23872205491840E-08
 [a.u.] -> [K]                                              3.15774647902944E+05
 [a.u.] -> [kJ/mol]                                         2.62549961709828E+03
 [a.u.] -> [kcal/mol]                                       6.27509468713739E+02
 [a.u.] -> [Pa]                                             2.94210107994716E+13
 [a.u.] -> [bar]                                            2.94210107994716E+08
 [a.u.] -> [atm]                                            2.90362800883016E+08
 [a.u.] -> [eV]                                             2.72113838565563E+01
 [a.u.] -> [Hz]                                             6.57968392072181E+15
 [a.u.] -> [1/cm] (wave numbers)                            2.19474631370540E+05
 [a.u./Bohr**2] -> [1/cm]                                   5.14048714338585E+03
 

 CELL_TOP| Volume [angstrom^3]:                                     27000.000000
 CELL_TOP| Vector a [angstrom    30.000     0.000     0.000   |a| =    30.000000
 CELL_TOP| Vector b [angstrom     0.000    30.000     0.000   |b| =    30.000000
 CELL_TOP| Vector c [angstrom     0.000     0.000    30.000   |c| =    30.000000
 CELL_TOP| Angle (b,c), alpha [degree]:                                90.000000
 CELL_TOP| Angle (a,c), beta  [degree]:                                90.000000
 CELL_TOP| Angle (a,b), gamma [degree]:                                90.000000
 CELL_TOP| Numerically orthorhombic:                                         YES
 CELL_TOP| Periodicity                                                      NONE

 GENERATE|  Preliminary Number of Bonds generated:                             0
 GENERATE|  Achieved consistency in connectivity generation.

 CELL| Volume [angstrom^3]:                                         27000.000000
 CELL| Vector a [angstrom]:      30.000     0.000     0.000   |a| =    30.000000
 CELL| Vector b [angstrom]:       0.000    30.000     0.000   |b| =    30.000000
 CELL| Vector c [angstrom]:       0.000     0.000    30.000   |c| =    30.000000
 CELL| Angle (b,c), alpha [degree]:                                    90.000000
 CELL| Angle (a,c), beta  [degree]:                                    90.000000
 CELL| Angle (a,b), gamma [degree]:                                    90.000000
 CELL| Numerically orthorhombic:                                             YES
 CELL| Periodicity                                                          NONE

 CELL_REF| Volume [angstrom^3]:                                     27000.000000
 CELL_REF| Vector a [angstrom    30.000     0.000     0.000   |a| =    30.000000
 CELL_REF| Vector b [angstrom     0.000    30.000     0.000   |b| =    30.000000
 CELL_REF| Vector c [angstrom     0.000     0.000    30.000   |c| =    30.000000
 CELL_REF| Angle (b,c), alpha [degree]:                                90.000000
 CELL_REF| Angle (a,c), beta  [degree]:                                90.000000
 CELL_REF| Angle (a,b), gamma [degree]:                                90.000000
 CELL_REF| Numerically orthorhombic:                                         YES
 CELL_REF| Periodicity                                                      NONE

 *******************************************************************************
 *******************************************************************************
 **                                                                           **
 **     #####                         ##              ##                      **
 **    ##   ##            ##          ##              ##                      **
 **   ##     ##                       ##            ######                    **
 **   ##     ##  ##   ##  ##   #####  ##  ##   ####   ##    #####    #####    **
 **   ##     ##  ##   ##  ##  ##      ## ##   ##      ##   ##   ##  ##   ##   **
 **   ##  ## ##  ##   ##  ##  ##      ####     ###    ##   ######   ######    **
 **    ##  ###   ##   ##  ##  ##      ## ##      ##   ##   ##       ##        **
 **     #######   #####   ##   #####  ##  ##  ####    ##    #####   ##        **
 **           ##                                                    ##        **
 **                                                                           **
 **                                                ... make the atoms dance   **
 **                                                                           **
 **            Copyright (C) by CP2K developers group (2000-2025)             **
 **                      J. Chem. Phys. 152, 194103 (2020)                    **
 **                                                                           **
 *******************************************************************************

 DFT| Spin restricted Kohn-Sham (RKS) calculation                            RKS
 DFT| Multiplicity                                                             1
 DFT| Number of spin states                                                    1
 DFT| Charge                                                                   0
 DFT| Self-interaction correction (SIC)                                       NO
 DFT| Cutoffs: density                                              1.000000E-10
 DFT|          gradient                                             1.000000E-10
 DFT|          tau                                                  1.000000E-10
 DFT|          cutoff_smoothing_range                               0.000000E+00
 DFT| XC density smoothing                                                  NONE
 DFT| XC derivatives                                                          PW

 FUNCTIONAL| PBE:
 FUNCTIONAL| J.P.Perdew, K.Burke, M.Ernzerhof, Phys. Rev. Letter, vol. 77, n 18,
 FUNCTIONAL|  pp. 3865-3868, (1996)sx=0.750sc=1.000{spin unpolarized}           


 QS| Method:                                                                GAPW
 QS| Density plane wave grid type                        NON-SPHERICAL FULLSPACE
 QS| Number of grid levels:                                                    4
 QS| Density cutoff [a.u.]:                                                250.0
 QS| Multi grid cutoff [a.u.]: 1) grid level                               250.0
 QS|                           2) grid level                                83.3
 QS|                           3) grid level                                27.8
 QS|                           4) grid level                                 9.3
 QS| Grid level progression factor:                                          3.0
 QS| Relative density cutoff [a.u.]:                                        50.0
 QS| Interaction thresholds: eps_pgf_orb:                                1.0E-12
 QS|                         eps_filter_matrix:                          0.0E+00
 QS|                         eps_core_charge:                            1.0E-14
 QS|                         eps_rho_gspace:                             1.0E-12
 QS|                         eps_rho_rspace:                             1.0E-12
 QS|                         eps_gvg_rspace:                             1.0E-06
 QS|                         eps_ppl:                                    1.0E-02
 QS|                         eps_ppnl:                                   1.0E-08
 QS| GAPW|      One center basis from orbital basis primitives
 QS| GAPW|                   eps_fit:                                    1.0E-04
 QS| GAPW|                   eps_iso:                                    1.0E-12
 QS| GAPW|                   eps_svd:                                    1.0E-08
 QS| GAPW|                   eps_cpc:                                    1.0E-12
 QS| GAPW|   atom-r-grid: quadrature:                                     GC_LOG
 QS| GAPW|      atom-s-grid:  max l :                                          4
 QS| GAPW|      max_l_rho0 :                                                   2


 ATOMIC KIND INFORMATION

  1. Atomic kind: H                                     Number of atoms:       4

     Orbital Basis Set                                         aug-SZV-MOLOPT-ae

       Number of orbital shell sets:                                           1
       Number of orbital shells:                                               4
       Number of primitive Cartesian functions:                                7
       Number of Cartesian basis functions:                                    6
       Number of spherical basis functions:                                    6
       Norm type:                                                              2

       Normalised Cartesian orbitals:

                        Set   Shell   Orbital            Exponent    Coefficient

                          1       1    1s                0.065428       0.000000
                                                         0.100112       0.016532
                                                         0.243077       0.102760
                                                         0.625955       0.185857
                                                         1.822143       0.188385
                                                         6.513144       0.143430
                                                        35.523221       0.095030

                          1       2    2s                0.065428       0.083549
                                                         0.100112       0.009605
                                                         0.243077       0.002524
                                                         0.625955       0.013457
                                                         1.822143       0.000000
                                                         6.513144       0.000000
                                                        35.523221       0.000000

                          1       3    3s                0.065428       0.037407
                                                         0.100112      -0.169070
                                                         0.243077      -0.018899
                                                         0.625955       0.012806
                                                         1.822143       0.000000
                                                         6.513144       0.000000
                                                        35.523221       0.000000

                          1       4    2px               0.065428       0.059908
                                                         0.100112      -0.023770
                                                         0.243077       0.000032
                                                         0.625955       0.017779
                                                         1.822143       0.000000
                                                         6.513144       0.000000
                                                        35.523221       0.000000
                          1       4    2py               0.065428       0.059908
                                                         0.100112      -0.023770
                                                         0.243077       0.000032
                                                         0.625955       0.017779
                                                         1.822143       0.000000
                                                         6.513144       0.000000
                                                        35.523221       0.000000
                          1       4    2pz               0.065428       0.059908
                                                         0.100112      -0.023770
                                                         0.243077       0.000032
                                                         0.625955       0.017779
                                                         1.822143       0.000000
                                                         6.513144       0.000000
                                                        35.523221       0.000000

     RI Auxiliary Basis Set             RI_aug-SZV-MOLOPT-ae_N_RI_035_s_p_d_f_g_

       Number of orbital shell sets:                                          15
       Number of orbital shells:                                              15
       Number of primitive Cartesian functions:                               15
       Number of Cartesian basis functions:                                   37
       Number of spherical basis functions:                                   35
       Norm type:                                                              2

       Normalised Cartesian orbitals:

                        Set   Shell   Orbital            Exponent    Coefficient

                          1       1    1s                0.236911       0.242019

                          2       1    8px               0.347892       0.380843
                          2       1    8py               0.347892       0.380843
                          2       1    8pz               0.347892       0.380843

                          3       1    2s                0.423897       0.374417

                          4       1    9px               0.493166       0.589089
                          4       1    9py               0.493166       0.589089
                          4       1    9pz               0.493166       0.589089

                          5       1   14dx2              0.625366       0.723843
                          5       1   14dxy              0.625366       1.253733
                          5       1   14dxz              0.625366       1.253733
                          5       1   14dy2              0.625366       0.723843
                          5       1   14dyz              0.625366       1.253733
                          5       1   14dz2              0.625366       0.723843

                          6       1   10px               0.699103       0.911206
                          6       1   10py               0.699103       0.911206
                          6       1   10pz               0.699103       0.911206

                          7       1    3s                0.758464       0.579244

                          8       1   11px               0.991036       1.409457
                          8       1   11py               0.991036       1.409457
                          8       1   11pz               0.991036       1.409457

                          9       1   15dx2              1.286053       2.556305
                          9       1   15dxy              1.286053       4.427650
                          9       1   15dxz              1.286053       4.427650
                          9       1   15dy2              1.286053       2.556305
                          9       1   15dyz              1.286053       4.427650
                          9       1   15dz2              1.286053       2.556305

                         10       1    4s                1.357095       0.896123

                         11       1   12px               1.404875       2.180155
                         11       1   12py               1.404875       2.180155
                         11       1   12pz               1.404875       2.180155

                         12       1   13px               1.991527       3.372273
                         12       1   13py               1.991527       3.372273
                         12       1   13pz               1.991527       3.372273

                         13       1    5s                2.428204       1.386354

                         14       1    6s                4.344704       2.144768

                         15       1    7s                7.773833       3.318077

       Atomic covalent radius [Angstrom]:                                  0.320

       Atomic van der Waals radius [Angstrom]:                             1.090

     The atoms of this atomic kind are PAW atoms (GAPW):
       Hard Gaussian function radius:                                      1.200
       Rho0 radius:                                                        1.200
       Maximum GTO radius used for PAW projector construction:            24.566

     GAPW Soft Basis Set                                  aug-SZV-MOLOPT-ae_soft

       Number of orbital shell sets:                                           1
       Number of orbital shells:                                               4
       Number of primitive Cartesian functions:                                6
       Number of Cartesian basis functions:                                    6
       Number of spherical basis functions:                                    6
       Norm type:                                                              2

       Normalised Cartesian orbitals:

                        Set   Shell   Orbital            Exponent    Coefficient

                          1       1    1s                0.065428       0.000000
                                                         0.100112       0.016532
                                                         0.243077       0.102760
                                                         0.625955       0.185857
                                                         1.822143       0.188385
                                                         6.513144       0.000000

                          1       2    2s                0.065428       0.083549
                                                         0.100112       0.009605
                                                         0.243077       0.002524
                                                         0.625955       0.013457
                                                         1.822143       0.000000
                                                         6.513144       0.000000

                          1       3    3s                0.065428       0.037407
                                                         0.100112      -0.169070
                                                         0.243077      -0.018899
                                                         0.625955       0.012806
                                                         1.822143       0.000000
                                                         6.513144       0.000000

                          1       4    2px               0.065428       0.059908
                                                         0.100112      -0.023770
                                                         0.243077       0.000032
                                                         0.625955       0.017779
                                                         1.822143       0.000000
                                                         6.513144       0.000000
                          1       4    2py               0.065428       0.059908
                                                         0.100112      -0.023770
                                                         0.243077       0.000032
                                                         0.625955       0.017779
                                                         1.822143       0.000000
                                                         6.513144       0.000000
                          1       4    2pz               0.065428       0.059908
                                                         0.100112      -0.023770
                                                         0.243077       0.000032
                                                         0.625955       0.017779
                                                         1.822143       0.000000
                                                         6.513144       0.000000

     AE Potential information for                                            ALL

       Description:                                       All-electron potential
                                          Krack, Parrinello, PCCP 2, 2105 (2000)

       Gaussian exponent of the core charge distribution:              12.500000
       Electronic configuration (s p d ...):                           1   0   0

  2. Atomic kind: C                                     Number of atoms:       7

     Orbital Basis Set                                         aug-SZV-MOLOPT-ae

       Number of orbital shell sets:                                           2
       Number of orbital shells:                                               6
       Number of primitive Cartesian functions:                               13
       Number of Cartesian basis functions:                                   15
       Number of spherical basis functions:                                   14
       Norm type:                                                              2

       Normalised Cartesian orbitals:

                        Set   Shell   Orbital            Exponent    Coefficient

                          1       1    2s                0.070000       0.000000
                                                         0.143687       0.040037
                                                         0.313471       0.177689
                                                         0.721783       0.139661
                                                         1.876046      -0.038599
                                                         6.036200      -0.128975
                                                        30.497239      -0.122578

                          1       2    3s                0.070000      -0.142268
                                                         0.143687       0.288819
                                                         0.313471       0.010360
                                                         0.721783       0.175994
                                                         1.876046       0.000000
                                                         6.036200       0.000000
                                                        30.497239       0.000000

                          1       3    3px               0.070000       0.000000
                                                         0.143687       0.012825
                                                         0.313471       0.142381
                                                         0.721783       0.396426
                                                         1.876046       0.544234
                                                         6.036200       0.508157
                                                        30.497239       0.384077
                          1       3    3py               0.070000       0.000000
                                                         0.143687       0.012825
                                                         0.313471       0.142381
                                                         0.721783       0.396426
                                                         1.876046       0.544234
                                                         6.036200       0.508157
                                                        30.497239       0.384077
                          1       3    3pz               0.070000       0.000000
                                                         0.143687       0.012825
                                                         0.313471       0.142381
                                                         0.721783       0.396426
                                                         1.876046       0.544234
                                                         6.036200       0.508157
                                                        30.497239       0.384077

                          1       4    4px               0.070000       0.076505
                                                         0.143687      -0.086104
                                                         0.313471       0.010230
                                                         0.721783       0.129894
                                                         1.876046       0.000000
                                                         6.036200       0.000000
                                                        30.497239       0.000000
                          1       4    4py               0.070000       0.076505
                                                         0.143687      -0.086104
                                                         0.313471       0.010230
                                                         0.721783       0.129894
                                                         1.876046       0.000000
                                                         6.036200       0.000000
                                                        30.497239       0.000000
                          1       4    4pz               0.070000       0.076505
                                                         0.143687      -0.086104
                                                         0.313471       0.010230
                                                         0.721783       0.129894
                                                         1.876046       0.000000
                                                         6.036200       0.000000
                                                        30.497239       0.000000

                          1       5    4dx2              0.070000       0.004316
                                                         0.143687       0.012639
                                                         0.313471       0.125057
                                                         0.721783       0.080411
                                                         1.876046       0.000000
                                                         6.036200       0.000000
                                                        30.497239       0.000000
                          1       5    4dxy              0.070000       0.007476
                                                         0.143687       0.021892
                                                         0.313471       0.216606
                                                         0.721783       0.139276
                                                         1.876046       0.000000
                                                         6.036200       0.000000
                                                        30.497239       0.000000
                          1       5    4dxz              0.070000       0.007476
                                                         0.143687       0.021892
                                                         0.313471       0.216606
                                                         0.721783       0.139276
                                                         1.876046       0.000000
                                                         6.036200       0.000000
                                                        30.497239       0.000000
                          1       5    4dy2              0.070000       0.004316
                                                         0.143687       0.012639
                                                         0.313471       0.125057
                                                         0.721783       0.080411
                                                         1.876046       0.000000
                                                         6.036200       0.000000
                                                        30.497239       0.000000
                          1       5    4dyz              0.070000       0.007476
                                                         0.143687       0.021892
                                                         0.313471       0.216606
                                                         0.721783       0.139276
                                                         1.876046       0.000000
                                                         6.036200       0.000000
                                                        30.497239       0.000000
                          1       5    4dz2              0.070000       0.004316
                                                         0.143687       0.012639
                                                         0.313471       0.125057
                                                         0.721783       0.080411
                                                         1.876046       0.000000
                                                         6.036200       0.000000
                                                        30.497239       0.000000

                          2       1    1s              742.737049       0.929185
                                                       136.180025       1.402437
                                                        38.098264       1.841991
                                                        13.087782       1.817278
                                                         5.082369       1.004768
                                                         2.093200       0.161650

     RI Auxiliary Basis Set             RI_aug-SZV-MOLOPT-ae_N_RI_048_s_p_d_f_g_

       Number of orbital shell sets:                                          14
       Number of orbital shells:                                              14
       Number of primitive Cartesian functions:                               14
       Number of Cartesian basis functions:                                   62
       Number of spherical basis functions:                                   48
       Norm type:                                                              2

       Normalised Cartesian orbitals:

                        Set   Shell   Orbital            Exponent    Coefficient

                          1       1    1s                0.182132       0.198701

                          2       1    7px               0.213594       0.206979
                          2       1    7py               0.213594       0.206979
                          2       1    7pz               0.213594       0.206979

                          3       1   10dx2              0.381125       0.304282
                          3       1   10dxy              0.381125       0.527033
                          3       1   10dxz              0.381125       0.527033
                          3       1   10dy2              0.381125       0.304282
                          3       1   10dyz              0.381125       0.527033
                          3       1   10dz2              0.381125       0.304282

                          4       1    2s                0.433905       0.381027

                          5       1   12fx3              0.524446       0.344573
                          5       1   12fx2y             0.524446       0.770488
                          5       1   12fx2z             0.524446       0.770488
                          5       1   12fxy2             0.524446       0.770488
                          5       1   12fxyz             0.524446       1.334524
                          5       1   12fxz2             0.524446       0.770488
                          5       1   12fy3              0.524446       0.344573
                          5       1   12fy2z             0.524446       0.770488
                          5       1   12fyz2             0.524446       0.770488
                          5       1   12fz3              0.524446       0.344573

                          6       1    8px               0.915857       1.277099
                          6       1    8py               0.915857       1.277099
                          6       1    8pz               0.915857       1.277099

                          7       1   14gx4              1.217666       1.912659
                          7       1   14gx3y             1.217666       5.060419
                          7       1   14gx3z             1.217666       5.060419
                          7       1   14gx2y2            1.217666       6.532973
                          7       1   14gx2yz            1.217666      11.315442
                          7       1   14gx2z2            1.217666       6.532973
                          7       1   14gxy3             1.217666       5.060419
                          7       1   14gxy2z            1.217666      11.315442
                          7       1   14gxyz2            1.217666      11.315442
                          7       1   14gxz3             1.217666       5.060419
                          7       1   14gy4              1.217666       1.912659
                          7       1   14gy3z             1.217666       5.060419
                          7       1   14gy2z2            1.217666       6.532973
                          7       1   14gyz3             1.217666       5.060419
                          7       1   14gz4              1.217666       1.912659

                          8       1   11dx2              1.581488       3.670921
                          8       1   11dxy              1.581488       6.358221
                          8       1   11dxz              1.581488       6.358221
                          8       1   11dy2              1.581488       3.670921
                          8       1   11dyz              1.581488       6.358221
                          8       1   11dz2              1.581488       3.670921

                          9       1    3s                1.620693       1.023730

                         10       1   13fx3              2.677157      13.496481
                         10       1   13fx2y             2.677157      30.179050
                         10       1   13fx2z             2.677157      30.179050
                         10       1   13fxy2             2.677157      30.179050
                         10       1   13fxyz             2.677157      52.271648
                         10       1   13fxz2             2.677157      30.179050
                         10       1   13fy3              2.677157      13.496481
                         10       1   13fy2z             2.677157      30.179050
                         10       1   13fyz2             2.677157      30.179050
                         10       1   13fz3              2.677157      13.496481

                         11       1    4s                5.999661       2.732154

                         12       1    9px               9.284861      23.102519
                         12       1    9py               9.284861      23.102519
                         12       1    9pz               9.284861      23.102519

                         13       1    5s               22.224963       7.295262

                         14       1    6s               82.329769      19.479498

       Atomic covalent radius [Angstrom]:                                  0.770

       Atomic van der Waals radius [Angstrom]:                             1.700

     The atoms of this atomic kind are PAW atoms (GAPW):
       Hard Gaussian function radius:                                      1.512
       Rho0 radius:                                                        1.512
       Maximum GTO radius used for PAW projector construction:            24.566

     GAPW Soft Basis Set                                  aug-SZV-MOLOPT-ae_soft

       Number of orbital shell sets:                                           2
       Number of orbital shells:                                               6
       Number of primitive Cartesian functions:                                6
       Number of Cartesian basis functions:                                   15
       Number of spherical basis functions:                                   14
       Norm type:                                                              2

       Normalised Cartesian orbitals:

                        Set   Shell   Orbital            Exponent    Coefficient

                          1       1    2s                0.070000       0.000000
                                                         0.143687       0.040037
                                                         0.313471       0.177689
                                                         0.721783       0.139661
                                                         1.876046      -0.038599

                          1       2    3s                0.070000      -0.142268
                                                         0.143687       0.288819
                                                         0.313471       0.010360
                                                         0.721783       0.175994
                                                         1.876046       0.000000

                          1       3    3px               0.070000       0.000000
                                                         0.143687       0.012825
                                                         0.313471       0.142381
                                                         0.721783       0.396426
                                                         1.876046       0.544234
                          1       3    3py               0.070000       0.000000
                                                         0.143687       0.012825
                                                         0.313471       0.142381
                                                         0.721783       0.396426
                                                         1.876046       0.544234
                          1       3    3pz               0.070000       0.000000
                                                         0.143687       0.012825
                                                         0.313471       0.142381
                                                         0.721783       0.396426
                                                         1.876046       0.544234

                          1       4    4px               0.070000       0.076505
                                                         0.143687      -0.086104
                                                         0.313471       0.010230
                                                         0.721783       0.129894
                                                         1.876046       0.000000
                          1       4    4py               0.070000       0.076505
                                                         0.143687      -0.086104
                                                         0.313471       0.010230
                                                         0.721783       0.129894
                                                         1.876046       0.000000
                          1       4    4pz               0.070000       0.076505
                                                         0.143687      -0.086104
                                                         0.313471       0.010230
                                                         0.721783       0.129894
                                                         1.876046       0.000000

                          1       5    4dx2              0.070000       0.004316
                                                         0.143687       0.012639
                                                         0.313471       0.125057
                                                         0.721783       0.080411
                                                         1.876046       0.000000
                          1       5    4dxy              0.070000       0.007476
                                                         0.143687       0.021892
                                                         0.313471       0.216606
                                                         0.721783       0.139276
                                                         1.876046       0.000000
                          1       5    4dxz              0.070000       0.007476
                                                         0.143687       0.021892
                                                         0.313471       0.216606
                                                         0.721783       0.139276
                                                         1.876046       0.000000
                          1       5    4dy2              0.070000       0.004316
                                                         0.143687       0.012639
                                                         0.313471       0.125057
                                                         0.721783       0.080411
                                                         1.876046       0.000000
                          1       5    4dyz              0.070000       0.007476
                                                         0.143687       0.021892
                                                         0.313471       0.216606
                                                         0.721783       0.139276
                                                         1.876046       0.000000
                          1       5    4dz2              0.070000       0.004316
                                                         0.143687       0.012639
                                                         0.313471       0.125057
                                                         0.721783       0.080411
                                                         1.876046       0.000000

                          2       1    1s                2.093200       0.161650

     AE Potential information for                                            ALL

       Description:                                       All-electron potential
                                          Krack, Parrinello, PCCP 2, 2105 (2000)

       Gaussian exponent of the core charge distribution:               4.109048
       Electronic configuration (s p d ...):                           4   2   0

  3. Atomic kind: N                                     Number of atoms:       1

     Orbital Basis Set                                         aug-SZV-MOLOPT-ae

       Number of orbital shell sets:                                           2
       Number of orbital shells:                                               6
       Number of primitive Cartesian functions:                               13
       Number of Cartesian basis functions:                                   15
       Number of spherical basis functions:                                   14
       Norm type:                                                              2

       Normalised Cartesian orbitals:

                        Set   Shell   Orbital            Exponent    Coefficient

                          1       1    1s                0.090000       0.000000
                                                         0.184684       0.048330
                                                         0.402911       0.214496
                                                         0.927724       0.168591
                                                         2.411326      -0.046594
                                                         7.758467      -0.155691
                                                        39.198808      -0.147969

                          1       2    2s                0.090000      -0.118940
                                                         0.184684       0.080942
                                                         0.402911      -0.164238
                                                         0.927724      -0.024406
                                                         2.411326       0.000000
                                                         7.758467       0.000000
                                                        39.198808       0.000000

                          1       3    2px               0.090000       0.000000
                                                         0.184684       0.017552
                                                         0.402911       0.194858
                                                         0.927724       0.542535
                                                         2.411326       0.744820
                                                         7.758467       0.695446
                                                        39.198808       0.525635
                          1       3    2py               0.090000       0.000000
                                                         0.184684       0.017552
                                                         0.402911       0.194858
                                                         0.927724       0.542535
                                                         2.411326       0.744820
                                                         7.758467       0.695446
                                                        39.198808       0.525635
                          1       3    2pz               0.090000       0.000000
                                                         0.184684       0.017552
                                                         0.402911       0.194858
                                                         0.927724       0.542535
                                                         2.411326       0.744820
                                                         7.758467       0.695446
                                                        39.198808       0.525635

                          1       4    3px               0.090000      -0.032237
                                                         0.184684      -0.080882
                                                         0.402911       0.112185
                                                         0.927724       1.067728
                                                         2.411326       0.000000
                                                         7.758467       0.000000
                                                        39.198808       0.000000
                          1       4    3py               0.090000      -0.032237
                                                         0.184684      -0.080882
                                                         0.402911       0.112185
                                                         0.927724       1.067728
                                                         2.411326       0.000000
                                                         7.758467       0.000000
                                                        39.198808       0.000000
                          1       4    3pz               0.090000      -0.032237
                                                         0.184684      -0.080882
                                                         0.402911       0.112185
                                                         0.927724       1.067728
                                                         2.411326       0.000000
                                                         7.758467       0.000000
                                                        39.198808       0.000000

                          1       5    3dx2              0.090000      -0.010633
                                                         0.184684      -0.050923
                                                         0.402911       0.103346
                                                         0.927724      -0.777682
                                                         2.411326       0.000000
                                                         7.758467       0.000000
                                                        39.198808       0.000000
                          1       5    3dxy              0.090000      -0.018417
                                                         0.184684      -0.088201
                                                         0.402911       0.179000
                                                         0.927724      -1.346985
                                                         2.411326       0.000000
                                                         7.758467       0.000000
                                                        39.198808       0.000000
                          1       5    3dxz              0.090000      -0.018417
                                                         0.184684      -0.088201
                                                         0.402911       0.179000
                                                         0.927724      -1.346985
                                                         2.411326       0.000000
                                                         7.758467       0.000000
                                                        39.198808       0.000000
                          1       5    3dy2              0.090000      -0.010633
                                                         0.184684      -0.050923
                                                         0.402911       0.103346
                                                         0.927724      -0.777682
                                                         2.411326       0.000000
                                                         7.758467       0.000000
                                                        39.198808       0.000000
                          1       5    3dyz              0.090000      -0.018417
                                                         0.184684      -0.088201
                                                         0.402911       0.179000
                                                         0.927724      -1.346985
                                                         2.411326       0.000000
                                                         7.758467       0.000000
                                                        39.198808       0.000000
                          1       5    3dz2              0.090000      -0.010633
                                                         0.184684      -0.050923
                                                         0.402911       0.103346
                                                         0.927724      -0.777682
                                                         2.411326       0.000000
                                                         7.758467       0.000000
                                                        39.198808       0.000000

                          2       1    1s             1027.828458       1.185541
                                                       188.451223       1.789359
                                                        52.721861       2.350183
                                                        18.111382       2.318652
                                                         7.033180       1.281976
                                                         2.896652       0.206248

     RI Auxiliary Basis Set             RI_aug-SZV-MOLOPT-ae_N_RI_078_s_p_d_f_g_

       Number of orbital shell sets:                                          22
       Number of orbital shells:                                              22
       Number of primitive Cartesian functions:                               22
       Number of Cartesian basis functions:                                   95
       Number of spherical basis functions:                                   78
       Norm type:                                                              2

       Normalised Cartesian orbitals:

                        Set   Shell   Orbital            Exponent    Coefficient

                          1       1   14dx2              0.291362       0.190181
                          1       1   14dxy              0.291362       0.329403
                          1       1   14dxz              0.291362       0.329403
                          1       1   14dy2              0.291362       0.190181
                          1       1   14dyz              0.291362       0.329403
                          1       1   14dz2              0.291362       0.190181

                          2       1    1s                0.318618       0.302248

                          3       1    8px               0.321098       0.344538
                          3       1    8py               0.321098       0.344538
                          3       1    8pz               0.321098       0.344538

                          4       1   19fx3              0.487459       0.292291
                          4       1   19fx2y             0.487459       0.653583
                          4       1   19fx2z             0.487459       0.653583
                          4       1   19fxy2             0.487459       0.653583
                          4       1   19fxyz             0.487459       1.132040
                          4       1   19fxz2             0.487459       0.653583
                          4       1   19fy3              0.487459       0.292291
                          4       1   19fy2z             0.487459       0.653583
                          4       1   19fyz2             0.487459       0.653583
                          4       1   19fz3              0.487459       0.292291

                          5       1    2s                0.502813       0.425564

                          6       1   15dx2              0.593989       0.661488
                          6       1   15dxy              0.593989       1.145730
                          6       1   15dxz              0.593989       1.145730
                          6       1   15dy2              0.593989       0.661488
                          6       1   15dyz              0.593989       1.145730
                          6       1   15dz2              0.593989       0.661488

                          7       1    9px               0.734849       0.969812
                          7       1    9py               0.734849       0.969812
                          7       1    9pz               0.734849       0.969812

                          8       1   20fx3              0.908355       1.185848
                          8       1   20fx2y             0.908355       2.651637
                          8       1   20fx2z             0.908355       2.651637
                          8       1   20fxy2             0.908355       2.651637
                          8       1   20fxyz             0.908355       4.592770
                          8       1   20fxz2             0.908355       2.651637
                          8       1   20fy3              0.908355       1.185848
                          8       1   20fy2z             0.908355       2.651637
                          8       1   20fyz2             0.908355       2.651637
                          8       1   20fz3              0.908355       1.185848

                          9       1    3s                1.242358       0.838678

                         10       1   16dx2              1.253766       2.445054
                         10       1   16dxy              1.253766       4.234958
                         10       1   16dxz              1.253766       4.234958
                         10       1   16dy2              1.253766       2.445054
                         10       1   16dyz              1.253766       4.234958
                         10       1   16dz2              1.253766       2.445054

                         11       1   10px               1.585831       2.536655
                         11       1   10py               1.585831       2.536655
                         11       1   10pz               1.585831       2.536655

                         12       1   21fx3              1.761593       5.263108
                         12       1   21fx2y             1.761593      11.768666
                         12       1   21fx2z             1.761593      11.768666
                         12       1   21fxy2             1.761593      11.768666
                         12       1   21fxyz             1.761593      20.383928
                         12       1   21fxz2             1.761593      11.768666
                         12       1   21fy3              1.761593       5.263108
                         12       1   21fy2z             1.761593      11.768666
                         12       1   21fyz2             1.761593      11.768666
                         12       1   21fz3              1.761593       5.263108

                         13       1   17dx2              2.705381       9.393105
                         13       1   17dxy              2.705381      16.269335
                         13       1   17dxz              2.705381      16.269335
                         13       1   17dy2              2.705381       9.393105
                         13       1   17dyz              2.705381      16.269335
                         13       1   17dz2              2.705381       9.393105

                         14       1   22fx3              3.387848      22.923628
                         14       1   22fx2y             3.387848      51.258791
                         14       1   22fx2z             3.387848      51.258791
                         14       1   22fxy2             3.387848      51.258791
                         14       1   22fxyz             3.387848      88.782831
                         14       1   22fxz2             3.387848      51.258791
                         14       1   22fy3              3.387848      22.923628
                         14       1   22fy2z             3.387848      51.258791
                         14       1   22fyz2             3.387848      51.258791
                         14       1   22fz3              3.387848      22.923628

                         15       1   11px               3.964252       7.973364
                         15       1   11py               3.964252       7.973364
                         15       1   11pz               3.964252       7.973364

                         16       1    4s                4.101762       2.054177

                         17       1   18dx2              5.710838      34.724354
                         17       1   18dxy              5.710838      60.144345
                         17       1   18dxz              5.710838      60.144345
                         17       1   18dy2              5.710838      34.724354
                         17       1   18dyz              5.710838      60.144345
                         17       1   18dz2              5.710838      34.724354

                         18       1   12px               9.453485      23.628165
                         18       1   12py               9.453485      23.628165
                         18       1   12pz               9.453485      23.628165

                         19       1    5s               12.671038       4.786513

                         20       1   13px              22.275538      68.980343
                         20       1   13py              22.275538      68.980343
                         20       1   13pz              22.275538      68.980343

                         21       1    6s               37.465322      10.792752

                         22       1    7s              110.027825      24.212353

       Atomic covalent radius [Angstrom]:                                  0.750

       Atomic van der Waals radius [Angstrom]:                             1.550

     The atoms of this atomic kind are PAW atoms (GAPW):
       Hard Gaussian function radius:                                      1.512
       Rho0 radius:                                                        1.512
       Maximum GTO radius used for PAW projector construction:            24.566

     GAPW Soft Basis Set                                  aug-SZV-MOLOPT-ae_soft

       Number of orbital shell sets:                                           2
       Number of orbital shells:                                               6
       Number of primitive Cartesian functions:                                6
       Number of Cartesian basis functions:                                   15
       Number of spherical basis functions:                                   14
       Norm type:                                                              2

       Normalised Cartesian orbitals:

                        Set   Shell   Orbital            Exponent    Coefficient

                          1       1    1s                0.090000       0.000000
                                                         0.184684       0.048330
                                                         0.402911       0.214496
                                                         0.927724       0.168591
                                                         2.411326      -0.046594

                          1       2    2s                0.090000      -0.118940
                                                         0.184684       0.080942
                                                         0.402911      -0.164238
                                                         0.927724      -0.024406
                                                         2.411326       0.000000

                          1       3    2px               0.090000       0.000000
                                                         0.184684       0.017552
                                                         0.402911       0.194858
                                                         0.927724       0.542535
                                                         2.411326       0.744820
                          1       3    2py               0.090000       0.000000
                                                         0.184684       0.017552
                                                         0.402911       0.194858
                                                         0.927724       0.542535
                                                         2.411326       0.744820
                          1       3    2pz               0.090000       0.000000
                                                         0.184684       0.017552
                                                         0.402911       0.194858
                                                         0.927724       0.542535
                                                         2.411326       0.744820

                          1       4    3px               0.090000      -0.032237
                                                         0.184684      -0.080882
                                                         0.402911       0.112185
                                                         0.927724       1.067728
                                                         2.411326       0.000000
                          1       4    3py               0.090000      -0.032237
                                                         0.184684      -0.080882
                                                         0.402911       0.112185
                                                         0.927724       1.067728
                                                         2.411326       0.000000
                          1       4    3pz               0.090000      -0.032237
                                                         0.184684      -0.080882
                                                         0.402911       0.112185
                                                         0.927724       1.067728
                                                         2.411326       0.000000

                          1       5    3dx2              0.090000      -0.010633
                                                         0.184684      -0.050923
                                                         0.402911       0.103346
                                                         0.927724      -0.777682
                                                         2.411326       0.000000
                          1       5    3dxy              0.090000      -0.018417
                                                         0.184684      -0.088201
                                                         0.402911       0.179000
                                                         0.927724      -1.346985
                                                         2.411326       0.000000
                          1       5    3dxz              0.090000      -0.018417
                                                         0.184684      -0.088201
                                                         0.402911       0.179000
                                                         0.927724      -1.346985
                                                         2.411326       0.000000
                          1       5    3dy2              0.090000      -0.010633
                                                         0.184684      -0.050923
                                                         0.402911       0.103346
                                                         0.927724      -0.777682
                                                         2.411326       0.000000
                          1       5    3dyz              0.090000      -0.018417
                                                         0.184684      -0.088201
                                                         0.402911       0.179000
                                                         0.927724      -1.346985
                                                         2.411326       0.000000
                          1       5    3dz2              0.090000      -0.010633
                                                         0.184684      -0.050923
                                                         0.402911       0.103346
                                                         0.927724      -0.777682
                                                         2.411326       0.000000

                          2       1    1s                2.896652       0.206248

     AE Potential information for                                            ALL

       Description:                                       All-electron potential
                                          Krack, Parrinello, PCCP 2, 2105 (2000)

       Gaussian exponent of the core charge distribution:               5.979100
       Electronic configuration (s p d ...):                           4   3   0

  4. Atomic kind: Cl                                    Number of atoms:       1

     Orbital Basis Set                                         aug-SZV-MOLOPT-ae

       Number of orbital shell sets:                                           3
       Number of orbital shells:                                               8
       Number of primitive Cartesian functions:                               19
       Number of Cartesian basis functions:                                   19
       Number of spherical basis functions:                                   18
       Norm type:                                                              2

       Normalised Cartesian orbitals:

                        Set   Shell   Orbital            Exponent    Coefficient

                          1       1    1s                0.077000       0.000000
                                                         0.155732       0.048775
                                                         0.302177       0.213641
                                                         0.610646       0.074372
                                                         1.364210      -0.160589
                                                         3.637791      -0.133295
                                                        13.583529      -0.040055

                          1       2    2s                0.077000       0.113098
                                                         0.155732      -0.001418
                                                         0.302177      -0.032953
                                                         0.610646       0.000940
                                                         1.364210      -0.000650
                                                         3.637791      -0.006480
                                                        13.583529       0.000000

                          1       3    2px               0.077000       0.000000
                                                         0.155732       0.014765
                                                         0.302177       0.156150
                                                         0.610646       0.318942
                                                         1.364210       0.160173
                                                         3.637791      -0.130999
                                                        13.583529      -0.265378
                          1       3    2py               0.077000       0.000000
                                                         0.155732       0.014765
                                                         0.302177       0.156150
                                                         0.610646       0.318942
                                                         1.364210       0.160173
                                                         3.637791      -0.130999
                                                        13.583529      -0.265378
                          1       3    2pz               0.077000       0.000000
                                                         0.155732       0.014765
                                                         0.302177       0.156150
                                                         0.610646       0.318942
                                                         1.364210       0.160173
                                                         3.637791      -0.130999
                                                        13.583529      -0.265378

                          1       4    3px               0.077000       0.044533
                                                         0.155732       0.031887
                                                         0.302177       0.011087
                                                         0.610646      -0.025806
                                                         1.364210       0.119111
                                                         3.637791       0.324938
                                                        13.583529       0.000000
                          1       4    3py               0.077000       0.044533
                                                         0.155732       0.031887
                                                         0.302177       0.011087
                                                         0.610646      -0.025806
                                                         1.364210       0.119111
                                                         3.637791       0.324938
                                                        13.583529       0.000000
[...]
 qs_vxc_create                       76  8.0    0.001    0.001   21.827   21.828
 xc_vxc_pw_create                    75  9.0    0.157    0.222   21.827   21.827
 yz_to_x                            605 13.2    0.542    0.650   16.221   17.598
 xc_pw_derive                       450 11.0    0.003    0.004   16.903   17.331
 density_rs2pw                       76  7.0    0.003    0.004   14.791   15.589
 mp_sum_d                          4767  6.7    6.854   14.057    6.854   14.057
 sum_up_and_integrate                76  8.0    0.001    0.001   12.077   12.635
 integrate_v_rspace                  76  9.0    0.002    0.003   12.008   12.589
 potential_pw2rs                     76 10.0    0.008    0.010   11.704   11.862
 ps_wavelet_solve                    76  9.0    4.533    6.769   11.112   11.724
 xc_rho_set_and_dset_create          75 10.0    0.191    0.241   10.273   11.440
 mp_waitany                       25036 11.5    9.287   11.335    9.287   11.335
 transfer_pw2rs                     381 10.6    0.007    0.010   10.497   11.122
 xc_pw_divergence                    75 10.0    0.002    0.002   10.600   10.858
 hfx_ks_matrix                       76  8.0    0.001    0.002   10.161   10.195
 integrate_four_center               76  9.0    2.752    5.796   10.156   10.189
 transfer_rs2pw                     381  8.4    0.012    0.017    9.284    9.708
 grid_collocate_task_list            76  7.0    8.192    8.814    8.192    8.814
 prepare_gapw_den                    76  8.0    0.001    0.001    7.703    8.260
 mp2_main                             1  3.0    0.000    0.000    7.282    7.419
 transfer_pw2rs_250                 153 11.0    1.312    1.568    6.359    7.271
 gspace_mixing                       74  5.0    0.097    0.137    7.183    7.184
 mp_alltoall_d54                     76 10.0    3.341    7.092    3.341    7.092
 put_rho0_on_grid                    76  9.0    0.108    0.168    6.254    6.811
 mp2_gpw_main                         1  4.0    0.000    0.000    6.391    6.398
 transfer_rs2pw_250                 153 10.0    1.425    1.580    5.663    6.111
 mp_sync                            821  9.5    3.345    5.893    3.345    5.893
 integrate_vhg0_rspace               76  8.0    0.076    0.099    4.613    5.062
 rpa_ri_compute_en                    1  5.0    0.000    0.000    5.041    5.041
 rpa_num_int                          1  6.0    0.000    0.001    5.027    5.028
 fft_wrap_pw1pw2_90                 152 10.5    0.030    0.049    1.864    4.439
 mp_alltoall_d45                     77 10.0    3.745    4.403    3.745    4.403
 mp_isend_dm3                      3052 11.5    1.907    4.277    1.907    4.277
 mp_waitall_1                     72742 12.0    2.769    4.092    2.769    4.092
 mp_alltoall_d11v                  1384  9.4    2.700    3.800    2.700    3.800
 cp2k_distribution_to_z_slices       76  9.0    0.299    0.365    2.556    3.309
 parallel_gemm_fm                   370  8.5    0.000    0.000    3.236    3.298
 parallel_gemm_fm_cosma             370  9.5    3.236    3.298    3.236    3.298
 broyden_mixing                      74  6.0    3.028    3.131    3.249    3.280
 transfer_pw2rs_90                   76 12.0    0.257    0.324    1.952    2.658
 calculate_vxc_atom                  76  8.0    0.036    0.182    2.411    2.412
 compute_GW_self_energy             100  7.0    0.000    0.001    2.361    2.381
 transfer_rs2pw_90                   76  9.0    0.282    0.335    2.205    2.325
 compute_GW_self_energy_deep        100  8.0    0.332    0.347    2.166    2.186
 Vh_1c_gg_integrals                  76  8.0    0.009    0.192    0.743    2.171
 transfer_pw2rs_30                   76 12.0    0.329    0.390    1.692    2.110
 gaVxcgb_GC                         225  9.0    0.030    2.105    0.030    2.105
 pw_integral_ab_c1d_c1d_gs           76  9.0    0.208    0.248    0.828    1.986
 mp_max_i                           670  2.8    0.788    1.972    0.788    1.972
 mp_sum_dm                         3044  7.6    1.598    1.924    1.598    1.924
 start_bse_calculation                1  7.0    0.000    0.000    1.743    1.743
 xc_functional_eval                 525 10.9    0.001    0.002    0.951    1.672
 pbe_lda_eval                       525 11.9    0.950    1.671    0.950    1.671
 calc_screening_functions             1 10.0    0.791    0.812    1.548    1.624
 cp_fm_diag_elpa                     81  7.0    0.000    0.000    1.571    1.585
 cp_fm_diag_elpa_base                81  8.0    1.529    1.533    1.544    1.545
 powell_optimize                 971027 11.0    1.379    1.526    1.379    1.526
 integrate_four_center_main          76 10.0    0.023    0.079    1.264    1.489
 integrate_four_center_bin         5498 11.0    1.242    1.477    1.242    1.477
 rs_grid_zero                       382 11.2    1.163    1.467    1.163    1.467
 calculate_rho_atom                 304  9.0    0.416    1.356    0.416    1.356
 mp2_ri_gpw_compute_in                1  5.0    0.000    0.000    1.338    1.338
 mp2_ri_gpw_compute_in_loop           1  6.0    0.000    0.000    1.324    1.324
 contract_B_L                         4  7.0    0.001    0.002    1.205    1.296
 pw_derive                          678 11.3    1.135    1.271    1.135    1.271
 pw_copy                           1135 10.6    1.059    1.252    1.059    1.252
 transfer_rs2pw_30                   76  9.0    0.424    0.508    1.073    1.206
 mp_cart_create                     552  9.9    1.101    1.193    1.102    1.194
 dbt_pgrid_create_expert             84 10.8    0.000    0.000    1.079    1.171
 mp2_eri_3c_integrate                 1  7.0    0.001    0.002    0.104    1.165
 integrate_set_3c                  1072  8.0    0.094    1.095    0.104    1.164
 calc_pair_dist_radii                 1 10.0    0.458    0.466    1.079    1.149
 qs_scf_new_mos                      75  5.0    0.001    0.001    1.104    1.143
 mp_sum_dv                        16566 11.2    1.025    1.108    1.025    1.108
 pw_gather_p                        757 11.8    0.800    1.010    0.800    1.010
 mp_sendrecv_dv                   29032 10.0    0.854    1.002    0.854    1.002
 pw_scatter_p                       830 12.1    0.900    0.970    0.900    0.970
 rpa_num_int_RPA_matrix_operati     100  7.0    0.000    0.002    0.884    0.886
 rs_gather_matrices                  76 10.0    0.002    0.013    0.236    0.857
 create_hermitian_form_of_ABBA        1  8.0    0.000    0.000    0.839    0.849
 eigensolver_symm                    76  6.0    0.006    0.007    0.832    0.842
 pw_poisson_rebuild                  76  9.0    0.000    0.000    0.754    0.781
 ps_wavelet_create                    1 10.0    0.000    0.000    0.754    0.781
 RS_z_slice_distribution              1 11.0    0.192    0.214    0.754    0.781
 compute_vec_Sigma_x_minus_vxc_       1  4.0    0.000    0.000    0.749    0.749
 pw_poisson_set                      77  8.9    0.001    0.002    0.696    0.730
 calc_mat_Q                         100  8.0    0.000    0.000    0.716    0.727
 contract_S_to_Q                    100  9.0    0.000    0.000    0.715    0.726
 diagonalize_C                        1  8.0    0.000    0.000    0.703    0.705
 grid_integrate_task_list            76 10.0    0.065    0.704    0.065    0.704
 pw_copy_to_array                   757 11.8    0.518    0.701    0.518    0.701
 cp_fm_power                          2  7.5    0.006    0.009    0.635    0.641
 calculate_rho_atom_coeff            76  6.0    0.032    0.073    0.633    0.635
 transfer_pw2rs_10                   76 12.0    0.086    0.102    0.488    0.598
 cp_fm_to_fm_submat_general         112 10.1    0.166    0.534    0.166    0.534
 pw_axpy                            755  9.3    0.378    0.473    0.378    0.473
 update_ks_atom                      76  8.0    0.019    0.035    0.340    0.433
 pw_copy_from_array                 830 12.1    0.301    0.410    0.301    0.410
 mp_bcast_dm                       1976  9.0    0.321    0.406    0.321    0.406
 fft_wrap_pw1pw2_30                 152 10.5    0.004    0.005    0.307    0.400
 init_scf_run                         1  3.0    0.000    0.000    0.393    0.393
 transfer_rs2pw_10                   76  9.0    0.127    0.168    0.331    0.386
 scf_env_initial_rho_setup            1  4.0    0.000    0.000    0.384    0.385
 qs_energies_init_hamiltonians        1  3.0    0.000    0.000    0.359    0.359
 build_core_hamiltonian_matrix        1  4.0    0.000    0.000    0.355    0.355
 overlap_condnum                      1  5.0    0.000    0.000    0.353    0.355
 mp_alltoall_z11v                   304 13.5    0.266    0.352    0.266    0.352
 arnoldi_conjugate_gradient           7  6.0    0.007    0.008    0.335    0.335
 mp_irecv_dm3                      3052 11.5    0.064    0.290    0.064    0.290
 pw_zero                            452 10.3    0.257    0.290    0.257    0.290
 mp2_main_alloc_hfx                   1  4.0    0.115    0.252    0.115    0.252
 mp_sum_i                            21  9.7    0.137    0.251    0.137    0.251
 restraint_control                    1  2.0    0.000    0.000    0.137    0.251
 mp_rank_compare                   1587 12.9    0.226    0.238    0.226    0.238
 dbcsr_sym_matrix_vector_mult      2177  7.0    0.015    0.016    0.153    0.209
 offload_free_buffer                 84  8.4    0.142    0.205    0.142    0.205
 yz_to_xz                           152 14.0    0.011    0.012    0.143    0.204
 mp_sum_l                           962  6.1    0.179    0.203    0.179    0.203
 cp_fm_cholesky_invert              101  8.0    0.181    0.190    0.181    0.190
 calculate_dm_sparse                 75  6.0    0.000    0.000    0.179    0.188
 cp_dbcsr_plus_fm_fm_t               75  7.0    0.001    0.001    0.179    0.187
 integrate_four_center_load          76 10.0    0.000    0.000    0.157    0.180
 hfx_load_balance                     1 11.0    0.000    0.000    0.157    0.179
 xz_to_yz                           152 11.0    0.008    0.009    0.142    0.177
 hfx_load_balance_range               1 12.0    0.000    0.000    0.146    0.169
 write_mo_set_to_restart             75  5.0    0.001    0.117    0.105    0.165
 create_qs_kind_set                   1  2.0    0.000    0.000    0.160    0.160
 read_qs_kind                         4  3.0    0.063    0.085    0.160    0.160
 cp_fm_cholesky_decompose           102  9.0    0.155    0.159    0.155    0.159
 mp_alltoall_i22                    360  9.1    0.117    0.159    0.117    0.159
 copy_dbcsr_to_fm                   102  6.4    0.002    0.002    0.114    0.152
 compute_Erpa_by_freq_int           100  8.0    0.001    0.002    0.149    0.149
 mp_irecv_dv                      26933 11.7    0.026    0.147    0.026    0.147
 fft_wrap_pw1pw2_10                 152 10.5    0.001    0.002    0.106    0.139
 dbcsr_complete_redistribute        256  8.4    0.008    0.010    0.125    0.138
 calculate_rho0_atom                304  9.0    0.120    0.129    0.120    0.129
 dbcsr_multiply_generic             112  8.1    0.003    0.004    0.120    0.129
 integrate_four_center_getP          76 10.0    0.012    0.013    0.120    0.123
 dbt_total                            8  8.0    0.000    0.000    0.121    0.121
 dbt_contract                         4  9.0    0.000    0.000    0.113    0.114
 vxc_of_r_new                       450  9.0    0.000    0.010    0.003    0.113
 qs_init_subsys                       1  2.0    0.001    0.002    0.112    0.113
 dbcsr_rep_row_to_rep_col_vec      2177  8.0    0.005    0.006    0.038    0.111
 qs_env_setup                         1  3.0    0.000    0.000    0.107    0.108
 qs_env_rebuild_pw_env                2  3.5    0.000    0.000    0.107    0.107
 pw_env_rebuild                       1  5.0    0.000    0.000    0.107    0.107
 write_mo_set_low                     4  6.0    0.000    0.000    0.104    0.104
 cp_fm_write_unformatted              4  7.0    0.104    0.104    0.104    0.104
 create_A                             1  8.0    0.001    0.001    0.098    0.100
 parser_read_line                 26113  4.0    0.004    0.004    0.097    0.098
 mp_isend_dv                      27150 11.7    0.052    0.098    0.052    0.098
 dbcsr_desymmetrize_deep            104  7.4    0.002    0.002    0.057    0.095
 parser_read_line_low                39  5.0    0.003    0.023    0.093    0.094
 broadcast_input_information         39  6.0    0.011    0.012    0.090    0.092
 copy_fm_to_dbcsr                   154  8.1    0.000    0.000    0.076    0.090
 scf_post_calculation_gpw             1  3.0    0.000    0.000    0.087    0.087
 write_available_results              1  4.0    0.000    0.000    0.086    0.087
 write_mo_free_results                1  5.0    0.002    0.003    0.086    0.086
 pw_grid_setup                        4  6.0    0.000    0.000    0.083    0.084
 pw_grid_setup_internal               4  7.0    0.001    0.002    0.083    0.084
 dbt_tas_multiply                     8 11.5    0.000    0.000    0.083    0.083
 dbt_tas_total                        8 12.5    0.000    0.001    0.081    0.081
 scale_and_distribute               152 10.0    0.055    0.081    0.055    0.081
 create_B                             1  8.0    0.000    0.000    0.062    0.078
 mp_isendrecv_dv                  58064 12.0    0.047    0.074    0.047    0.074
 dbcsr_add_d                       3319  7.0    0.002    0.002    0.013    0.070
 mp_bcast_b_src                     157  7.5    0.065    0.069    0.065    0.069
 postprocess_bse                      1  9.0    0.000    0.000    0.063    0.069
 abc_contract                      1072  9.0    0.010    0.069    0.010    0.069
 dbcsr_add_anytype                 3319  8.0    0.002    0.009    0.011    0.069
 dbcsr_col_vec_to_rep_row          2177  8.0    0.007    0.008    0.044    0.067
 mp_bcast_i_src                     156  7.0    0.054    0.065    0.054    0.065
 external_control                    76  5.0    0.000    0.062    0.064    0.064
 integrate_four_center_dist_KS       76 10.0    0.011    0.013    0.060    0.061
 rs_scatter_matrices                 76  7.0    0.001    0.001    0.002    0.057
 multiply_cannon                    112  9.1    0.006    0.007    0.045    0.053
 cp_fm_symm                          76  7.0    0.049    0.051    0.049    0.051
 pw_grid_sort                         4  8.0    0.035    0.036    0.048    0.051
 dbcsr_sym_matrix_vector_mult_l    2177  8.0    0.003    0.047    0.006    0.050
 dbcsr_finalize                    4722 10.6    0.004    0.014    0.016    0.050
 pw_scale                           301  9.5    0.037    0.049    0.037    0.049
 make_m2s                           224  9.1    0.002    0.003    0.045    0.049
 cube_transpose_2                   152 11.0    0.003    0.003    0.029    0.048
 fm_general_add_bse                   5 10.2    0.000    0.000    0.033    0.046
 cube_transpose_1                   152 14.0    0.002    0.003    0.022    0.043
 dbcsr_copy                        9349  7.6    0.013    0.030    0.023    0.041
 cp_fm_redistribute_start            81  8.0    0.000    0.000    0.027    0.040
 multiply_cannon_loop               112 10.1    0.005    0.005    0.030    0.039
 hirshfeld_integration                1  6.0    0.001    0.005    0.038    0.039
 calculate_hirshfeld_normalizat       1  6.0    0.001    0.005    0.035    0.036
 cp_fm_uplo_to_full                 185  8.4    0.025    0.036    0.025    0.036
 dbt_tas_dbm                          8 13.5    0.000    0.000    0.035    0.035
 mp_bcast_dv                       2177  9.0    0.019    0.034    0.019    0.034
 xc_pw_smooth                        75 10.0    0.000    0.000    0.024    0.034
 cp_fm_syrk                           3  7.0    0.033    0.033    0.033    0.033
 mult_B_with_W                        1  8.0    0.000    0.000    0.030    0.033
 dbt_tas_estimate_result_nze          4 12.0    0.000    0.001    0.033    0.033
 dbm_multiply                         8 15.5    0.030    0.033    0.030    0.033
 get_multipoles_mo                    1 10.0    0.000    0.000    0.026    0.032
 make_images                        224 10.1    0.006    0.008    0.028    0.030
 mp_bcast_am_src                     39  7.0    0.024    0.028    0.024    0.029
 dbt_tas_mm_1N                        6 14.5    0.000    0.000    0.026    0.028
 fm_general_add_bse_5_comm_buff       5 11.2    0.000    0.000    0.015    0.028
 communicate_buffer                   5 12.2    0.000    0.000    0.015    0.028
 mp_maxloc_dv                      1525  1.0    0.027    0.027    0.027    0.027
 dbcsr_iterator_start             27925  8.8    0.016    0.022    0.019    0.027
 dbcsr_merge_all                   3987 11.4    0.006    0.023    0.009    0.027
 mp_comm_split_direct                48 14.5    0.018    0.026    0.018    0.026
 Q_trace_and_add_unit_matrix        100  8.0    0.000    0.002    0.018    0.025
 dbt_copy                            12 10.1    0.000    0.000    0.021    0.025
 dbt_remap                            8 10.0    0.001    0.001    0.022    0.024
 get_oscillator_strengths             1 10.0    0.000    0.000    0.023    0.023
 dbt_distribution_new_expert         76 10.1    0.001    0.001    0.021    0.021
 mixing_init                          1  5.0    0.020    0.021    0.021    0.021
 dbt_tas_distribution_new            96 11.8    0.012    0.013    0.020    0.021
 truncate_BSE_matrices                1  8.0    0.000    0.000    0.010    0.020
 compute_max_radius                   1  6.0    0.018    0.020    0.018    0.020
 mp_cart_sub                        210  8.5    0.019    0.020    0.019    0.020
 dbt_reshape                          8 11.6    0.003    0.005    0.017    0.020
 mp_waitall_2                        50 15.7    0.014    0.018    0.014    0.018
 mp_alltoall_i                       40 13.9    0.011    0.017    0.011    0.017
 dbcsr_create_new                 11637  8.9    0.012    0.013    0.017    0.017
 dbcsr_iterator_stop              27925  8.8    0.011    0.013    0.013    0.016
 mp2_main_free_hfx                    1  4.0    0.007    0.016    0.007    0.016
 multiply_cannon_metrocomm3        1952 11.1    0.003    0.003    0.007    0.016
 dbcsr_dot                          151  8.0    0.001    0.001    0.015    0.016
 sort_shells                          4  9.0    0.013    0.015    0.013    0.015
 make_images_sizes                  224 11.1    0.000    0.000    0.013    0.015
 mp_alltoall_i44                    224 12.1    0.013    0.014    0.013    0.014
 dbt_tas_replicate                    8 13.5    0.004    0.005    0.013    0.014
 create_integ_mat                     4  6.0    0.001    0.001    0.014    0.014
 print_transition_amplitudes          1 10.0    0.000    0.000    0.014    0.014
 print_transition_amplitudes_co      50 11.0    0.000    0.000    0.014    0.014
 filter_eigvec_contrib               50 12.0    0.007    0.007    0.014    0.014
 dbt_communicate_buffer               8 12.6    0.001    0.001    0.011    0.014
 get_2c_integrals                     1  6.0    0.000    0.000    0.012    0.013
 -------------------------------------------------------------------------------

 The number of warnings for this run is : 1
 
 -------------------------------------------------------------------------------
  **** **** ******  **  PROGRAM ENDED AT                 2025-03-15 09:37:01.844
 ***** ** ***  *** **   PROGRAM RAN ON                                  n2cn0813
 **    ****   ******    PROGRAM RAN BY                                  metdyn02
 ***** **    ** ** **   PROGRAM PROCESS ID                               4094763
  **** **  *******  **  PROGRAM STOPPED IN /scratch/hpc-prf-metdyn/metdyn02_Remi
                                           /10_MOL/05_MOL/aUKBqsEOTmq69kFe5R_nOg
                                           /5k_set_final_qzvp/WEVSAS/SZV/GW+BSE/
                                           RILIM
