 DBCSR| CPU Multiplication driver                                           BLAS (U)
 DBCSR| Multrec recursion limit                                              512 (U)
 DBCSR| Multiplication stack size                                           1000 (D)
 DBCSR| Maximum elements for images                                    UNLIMITED (U)
 DBCSR| Multiplicative factor virtual images                                   1 (U)
 DBCSR| Use multiplication densification                                       T (D)
 DBCSR| Multiplication size stacks                                             3 (U)
 DBCSR| Use memory pool for CPU allocation                                     F (U)
 DBCSR| Number of 3D layers                                               SINGLE (U)
 DBCSR| Use MPI memory allocation                                              F (U)
 DBCSR| Use RMA algorithm                                                      F (U)
 DBCSR| Use Communication thread                                               T (U)
 DBCSR| Communication thread load                                             75 (D)
 DBCSR| MPI: My process id                                                     0
 DBCSR| MPI: Number of processes                                             216
 DBCSR| OMP: Current number of threads                                         4
 DBCSR| OMP: Max number of threads                                             4
 DBCSR| Split modifier for TAS multiplication algorithm                  1.0E+00 (U)


  **** **** ******  **  PROGRAM STARTED AT               2025-03-29 08:33:36.053
 ***** ** ***  *** **   PROGRAM STARTED ON                          i03r10c03s05
 **    ****   ******    PROGRAM STARTED BY                               di38fab
 ***** **    ** ** **   PROGRAM PROCESS ID                                856356
  **** **  *******  **  PROGRAM STARTED IN /hppfs/scratch/04/di38fab/07_MOL_non_
                                           aug/05_MOL_non_aug/05_MOL/aUKBqsEOTmq
                                           69kFe5R_nOg/5k_set_final_qzvp/NEFFOT/
                                           SZV/GW+BSE

 CP2K| version string:                 CP2K version 2025.1 (Development Version)
 CP2K| source code revision number:                                  git:d2e611a
 CP2K| cp2kflags: omp libint fftw3 libxc parallel scalapack max_contr=4         
 CP2K| is freely available from                            https://www.cp2k.org/
 CP2K| Program compiled at                       Thu 06 Mar 2025 05:09:20 PM CET
 CP2K| Program compiled on                                               login02
 CP2K| Program compiled for                                        Supermuc-foss
 CP2K| Data directory path                  /hppfs/work/pn36zo/di38fab/cp2k/data
 CP2K| Input file name                                                    GW.inp

 GLOBAL| Force Environment number                                              1
 GLOBAL| Basis set file name            /hppfs/scratch/04/di38fab/04_TMD/BASIS_A
 GLOBAL| Potential file name            /hppfs/work/pn36zo/di38fab/cp2k/data/ALL
 GLOBAL| MM Potential file name                                     MM_POTENTIAL
 GLOBAL| Coordinate file name                                      __STD_INPUT__
 GLOBAL| Method name                                                        CP2K
 GLOBAL| Project name                                                       MoS2
 GLOBAL| Run type                                                         ENERGY
 GLOBAL| FFT library                                                       FFTW3
 GLOBAL| Diagonalization library                                       ScaLAPACK
 GLOBAL| DGEMM library                                                      BLAS
 GLOBAL| Orthonormality check for eigenvectors                          DISABLED
 GLOBAL| Matrix multiplication library                                 ScaLAPACK
 GLOBAL| All-to-all communication in single precision                          F
 GLOBAL| FFTs using library dependent lengths                                  F
 GLOBAL| Grid backend                                                       AUTO
 GLOBAL| Global print level                                               MEDIUM
 GLOBAL| MPI I/O enabled                                                       T
 GLOBAL| Total number of message passing processes                           216
 GLOBAL| Number of threads for this process                                    4
 GLOBAL| This output is from process                                           0
 GLOBAL| OpenMP stack size per thread (OMP_STACKSIZE)                    default
 GLOBAL| CPU model name             Intel(R) Xeon(R) Platinum 8174 CPU @ 3.10GHz

 MEMORY| system memory details [Kb]
 MEMORY|                        rank 0           min           max       average
 MEMORY| MemTotal             98436660      98436644      98436664      98436661
 MEMORY| MemFree              86283732      85850556      86297888      86078667
 MEMORY| Buffers                     0             0             0             0
 MEMORY| Cached                2247008       2246040       2257244       2248507
 MEMORY| Slab                   825660        818020        894800        864646
 MEMORY| SReclaimable           152340        149436        195968        176484
 MEMORY| MemLikelyFree        88683080      88292372      88696304      88503658


 *** Fundamental physical constants (SI units) ***

 *** Literature: B. J. Mohr and B. N. Taylor,
 ***             CODATA recommended values of the fundamental physical
 ***             constants: 2006, Web Version 5.1
 ***             http://physics.nist.gov/constants

 Speed of light in vacuum [m/s]                             2.99792458000000E+08
 Magnetic constant or permeability of vacuum [N/A**2]       1.25663706143592E-06
 Electric constant or permittivity of vacuum [F/m]          8.85418781762039E-12
 Planck constant (h) [J*s]                                  6.62606896000000E-34
 Planck constant (h-bar) [J*s]                              1.05457162825177E-34
 Elementary charge [C]                                      1.60217648700000E-19
 Electron mass [kg]                                         9.10938215000000E-31
 Electron g factor [ ]                                     -2.00231930436220E+00
 Proton mass [kg]                                           1.67262163700000E-27
 Fine-structure constant                                    7.29735253760000E-03
 Rydberg constant [1/m]                                     1.09737315685270E+07
 Avogadro constant [1/mol]                                  6.02214179000000E+23
 Boltzmann constant [J/K]                                   1.38065040000000E-23
 Atomic mass unit [kg]                                      1.66053878200000E-27
 Bohr radius [m]                                            5.29177208590000E-11

 *** Conversion factors ***

 [u] -> [a.u.]                                              1.82288848426455E+03
 [Angstrom] -> [Bohr] = [a.u.]                              1.88972613288564E+00
 [a.u.] = [Bohr] -> [Angstrom]                              5.29177208590000E-01
 [a.u.] -> [s]                                              2.41888432650478E-17
 [a.u.] -> [fs]                                             2.41888432650478E-02
 [a.u.] -> [J]                                              4.35974393937059E-18
 [a.u.] -> [N]                                              8.23872205491840E-08
 [a.u.] -> [K]                                              3.15774647902944E+05
 [a.u.] -> [kJ/mol]                                         2.62549961709828E+03
 [a.u.] -> [kcal/mol]                                       6.27509468713739E+02
 [a.u.] -> [Pa]                                             2.94210107994716E+13
 [a.u.] -> [bar]                                            2.94210107994716E+08
 [a.u.] -> [atm]                                            2.90362800883016E+08
 [a.u.] -> [eV]                                             2.72113838565563E+01
 [a.u.] -> [Hz]                                             6.57968392072181E+15
 [a.u.] -> [1/cm] (wave numbers)                            2.19474631370540E+05
 [a.u./Bohr**2] -> [1/cm]                                   5.14048714338585E+03
 

 CELL_TOP| Volume [angstrom^3]:                                     27000.000000
 CELL_TOP| Vector a [angstrom    30.000     0.000     0.000   |a| =    30.000000
 CELL_TOP| Vector b [angstrom     0.000    30.000     0.000   |b| =    30.000000
 CELL_TOP| Vector c [angstrom     0.000     0.000    30.000   |c| =    30.000000
 CELL_TOP| Angle (b,c), alpha [degree]:                                90.000000
 CELL_TOP| Angle (a,c), beta  [degree]:                                90.000000
 CELL_TOP| Angle (a,b), gamma [degree]:                                90.000000
 CELL_TOP| Numerically orthorhombic:                                         YES
 CELL_TOP| Periodicity                                                      NONE

 GENERATE|  Preliminary Number of Bonds generated:                             0
 GENERATE|  Achieved consistency in connectivity generation.

 CELL| Volume [angstrom^3]:                                         27000.000000
 CELL| Vector a [angstrom]:      30.000     0.000     0.000   |a| =    30.000000
 CELL| Vector b [angstrom]:       0.000    30.000     0.000   |b| =    30.000000
 CELL| Vector c [angstrom]:       0.000     0.000    30.000   |c| =    30.000000
 CELL| Angle (b,c), alpha [degree]:                                    90.000000
 CELL| Angle (a,c), beta  [degree]:                                    90.000000
 CELL| Angle (a,b), gamma [degree]:                                    90.000000
 CELL| Numerically orthorhombic:                                             YES
 CELL| Periodicity                                                          NONE

 CELL_REF| Volume [angstrom^3]:                                     27000.000000
 CELL_REF| Vector a [angstrom    30.000     0.000     0.000   |a| =    30.000000
 CELL_REF| Vector b [angstrom     0.000    30.000     0.000   |b| =    30.000000
 CELL_REF| Vector c [angstrom     0.000     0.000    30.000   |c| =    30.000000
 CELL_REF| Angle (b,c), alpha [degree]:                                90.000000
 CELL_REF| Angle (a,c), beta  [degree]:                                90.000000
 CELL_REF| Angle (a,b), gamma [degree]:                                90.000000
 CELL_REF| Numerically orthorhombic:                                         YES
 CELL_REF| Periodicity                                                      NONE

 *******************************************************************************
 *******************************************************************************
 **                                                                           **
 **     #####                         ##              ##                      **
 **    ##   ##            ##          ##              ##                      **
 **   ##     ##                       ##            ######                    **
 **   ##     ##  ##   ##  ##   #####  ##  ##   ####   ##    #####    #####    **
 **   ##     ##  ##   ##  ##  ##      ## ##   ##      ##   ##   ##  ##   ##   **
 **   ##  ## ##  ##   ##  ##  ##      ####     ###    ##   ######   ######    **
 **    ##  ###   ##   ##  ##  ##      ## ##      ##   ##   ##       ##        **
 **     #######   #####   ##   #####  ##  ##  ####    ##    #####   ##        **
 **           ##                                                    ##        **
 **                                                                           **
 **                                                ... make the atoms dance   **
 **                                                                           **
 **            Copyright (C) by CP2K developers group (2000-2025)             **
 **                      J. Chem. Phys. 152, 194103 (2020)                    **
 **                                                                           **
 *******************************************************************************

 DFT| Spin restricted Kohn-Sham (RKS) calculation                            RKS
 DFT| Multiplicity                                                             1
 DFT| Number of spin states                                                    1
 DFT| Charge                                                                   0
 DFT| Self-interaction correction (SIC)                                       NO
 DFT| Cutoffs: density                                              1.000000E-10
 DFT|          gradient                                             1.000000E-10
 DFT|          tau                                                  1.000000E-10
 DFT|          cutoff_smoothing_range                               0.000000E+00
 DFT| XC density smoothing                                                  NONE
 DFT| XC derivatives                                                          PW

 FUNCTIONAL| PBE:
 FUNCTIONAL| J.P.Perdew, K.Burke, M.Ernzerhof, Phys. Rev. Letter, vol. 77, n 18,
 FUNCTIONAL|  pp. 3865-3868, (1996)sx=0.750sc=1.000{spin unpolarized}           


 QS| Method:                                                                GAPW
 QS| Density plane wave grid type                        NON-SPHERICAL FULLSPACE
 QS| Number of grid levels:                                                    4
 QS| Density cutoff [a.u.]:                                                250.0
 QS| Multi grid cutoff [a.u.]: 1) grid level                               250.0
 QS|                           2) grid level                                83.3
 QS|                           3) grid level                                27.8
 QS|                           4) grid level                                 9.3
 QS| Grid level progression factor:                                          3.0
 QS| Relative density cutoff [a.u.]:                                        50.0
 QS| Interaction thresholds: eps_pgf_orb:                                1.0E-12
 QS|                         eps_filter_matrix:                          0.0E+00
 QS|                         eps_core_charge:                            1.0E-14
 QS|                         eps_rho_gspace:                             1.0E-12
 QS|                         eps_rho_rspace:                             1.0E-12
 QS|                         eps_gvg_rspace:                             1.0E-06
 QS|                         eps_ppl:                                    1.0E-02
 QS|                         eps_ppnl:                                   1.0E-08
 QS| GAPW|      One center basis from orbital basis primitives
 QS| GAPW|                   eps_fit:                                    1.0E-04
 QS| GAPW|                   eps_iso:                                    1.0E-12
 QS| GAPW|                   eps_svd:                                    1.0E-08
 QS| GAPW|                   eps_cpc:                                    1.0E-12
 QS| GAPW|   atom-r-grid: quadrature:                                     GC_LOG
 QS| GAPW|      atom-s-grid:  max l :                                          4
 QS| GAPW|      max_l_rho0 :                                                   2


 ATOMIC KIND INFORMATION

  1. Atomic kind: O                                     Number of atoms:       4

     Orbital Basis Set                                         SVP-MOLOPT-GGA-ae

       Number of orbital shell sets:                                           2
       Number of orbital shells:                                               6
       Number of primitive Cartesian functions:                               11
       Number of Cartesian basis functions:                                   15
       Number of spherical basis functions:                                   14
       Norm type:                                                              2

       Normalised Cartesian orbitals:

                        Set   Shell   Orbital            Exponent    Coefficient

                          1       1    2px              16.368686       3.596544
                                                         2.907977       2.082711
                                                         0.750068       0.626550
                                                         0.191936       0.023686
                          1       1    2py              16.368686       3.596544
                                                         2.907977       2.082711
                                                         0.750068       0.626550
                                                         0.191936       0.023686
                          1       1    2pz              16.368686       3.596544
                                                         2.907977       2.082711
                                                         0.750068       0.626550
                                                         0.191936       0.023686

                          1       2    3px              16.368686      -1.323495
                                                         2.907977      -0.566756
                                                         0.750068      -0.157257
                                                         0.191936       0.196557
                          1       2    3py              16.368686      -1.323495
                                                         2.907977      -0.566756
                                                         0.750068      -0.157257
                                                         0.191936       0.196557
                          1       2    3pz              16.368686      -1.323495
                                                         2.907977      -0.566756
                                                         0.750068      -0.157257
                                                         0.191936       0.196557

                          1       3    3dx2             16.368686       1.487256
                                                         2.907977       1.586204
                                                         0.750068       0.724129
                                                         0.191936       0.030414
                          1       3    3dxy             16.368686       2.576002
                                                         2.907977       2.747386
                                                         0.750068       1.254227
                                                         0.191936       0.052678
                          1       3    3dxz             16.368686       2.576002
                                                         2.907977       2.747386
                                                         0.750068       1.254227
                                                         0.191936       0.052678
                          1       3    3dy2             16.368686       1.487256
                                                         2.907977       1.586204
                                                         0.750068       0.724129
                                                         0.191936       0.030414
                          1       3    3dyz             16.368686       2.576002
                                                         2.907977       2.747386
                                                         0.750068       1.254227
                                                         0.191936       0.052678
                          1       3    3dz2             16.368686       1.487256
                                                         2.907977       1.586204
                                                         0.750068       0.724129
                                                         0.191936       0.030414

                          2       1    1s             2266.118827      -1.088852
                                                       340.903325      -2.616043
                                                        76.928143      -3.538410
                                                        19.692604      -3.542509
                                                         5.946538      -1.128731
                                                         0.941883       0.076823
                                                         0.293338      -0.001581

                          2       2    2s             2266.118827       0.730749
                                                       340.903325      -0.343055
                                                        76.928143       1.294240
                                                        19.692604       0.350657
                                                         5.946538       0.132815
                                                         0.941883       0.386056
                                                         0.293338       0.124568

                          2       3    3s             2266.118827      -6.417666
                                                       340.903325       2.878168
                                                        76.928143      -3.484318
                                                        19.692604      -0.580898
                                                         5.946538      -0.324434
                                                         0.941883      -0.735854
                                                         0.293338       0.411906

     RI Auxiliary Basis Set                                    aug-cc-pV5Z-OPTRI

       Number of orbital shell sets:                                          22
       Number of orbital shells:                                              22
       Number of primitive Cartesian functions:                               22
       Number of Cartesian basis functions:                                  188
       Number of spherical basis functions:                                  122
       Norm type:                                                              2

       Normalised Cartesian orbitals:

                        Set   Shell   Orbital            Exponent    Coefficient

                          1       1    1px               0.192845       0.182159
                          1       1    1py               0.192845       0.182159
                          1       1    1pz               0.192845       0.182159

                          2       1    1s                0.274668       0.270406

                          3       1    1gx4              0.339769       0.057173
                          3       1    1gx3y             0.339769       0.151265
                          3       1    1gx3z             0.339769       0.151265
                          3       1    1gx2y2            0.339769       0.195283
                          3       1    1gx2yz            0.339769       0.338240
                          3       1    1gx2z2            0.339769       0.195283
                          3       1    1gxy3             0.339769       0.151265
                          3       1    1gxy2z            0.339769       0.338240
                          3       1    1gxyz2            0.339769       0.338240
                          3       1    1gxz3             0.339769       0.151265
                          3       1    1gy4              0.339769       0.057173
                          3       1    1gy3z             0.339769       0.151265
                          3       1    1gy2z2            0.339769       0.195283
                          3       1    1gyz3             0.339769       0.151265
                          3       1    1gz4              0.339769       0.057173

                          4       1    1px               0.521618       0.631874
                          4       1    1py               0.521618       0.631874
                          4       1    1pz               0.521618       0.631874

                          5       1    1hx5              0.685702       0.217663
                          5       1    1hx4y             0.685702       0.652988
                          5       1    1hx4z             0.685702       0.652988
                          5       1    1hx3y2            0.685702       0.997456
                          5       1    1hx3yz            0.685702       1.727645
                          5       1    1hx3z2            0.685702       0.997456
                          5       1    1hx2y3            0.685702       0.997456
                          5       1    1hx2y2z           0.685702       2.230380
                          5       1    1hx2yz2           0.685702       2.230380
                          5       1    1hx2z3            0.685702       0.997456
                          5       1    1hxy4             0.685702       0.652988
                          5       1    1hxy3z            0.685702       1.727645
                          5       1    1hxy2z2           0.685702       2.230380
                          5       1    1hxyz3            0.685702       1.727645
                          5       1    1hxz4             0.685702       0.652988
                          5       1    1hy5              0.685702       0.217663
                          5       1    1hy4z             0.685702       0.652988
                          5       1    1hy3z2            0.685702       0.997456
                          5       1    1hy2z3            0.685702       0.997456
                          5       1    1hyz4             0.685702       0.652988
                          5       1    1hz5              0.685702       0.217663

                          6       1    1s                0.758952       0.579523

                          7       1    1fx3              0.920013       1.220368
                          7       1    1fx2y             0.920013       2.728826
                          7       1    1fx2z             0.920013       2.728826
                          7       1    1fxy2             0.920013       2.728826
                          7       1    1fxyz             0.920013       4.726466
                          7       1    1fxz2             0.920013       2.728826
                          7       1    1fy3              0.920013       1.220368
                          7       1    1fy2z             0.920013       2.728826
                          7       1    1fyz2             0.920013       2.728826
                          7       1    1fz3              0.920013       1.220368

                          8       1    1px               1.316456       2.010009
                          8       1    1py               1.316456       2.010009
                          8       1    1pz               1.316456       2.010009

                          9       1    1dx2              1.359080       2.815712
                          9       1    1dxy              1.359080       4.876956
                          9       1    1dxz              1.359080       4.876956
                          9       1    1dy2              1.359080       2.815712
                          9       1    1dyz              1.359080       4.876956
                          9       1    1dz2              1.359080       2.815712

                         10       1    1s                1.708274       1.064948

                         11       1    1gx4              1.984321       7.326022
                         11       1    1gx3y             1.984321      19.382833
                         11       1    1gx3z             1.984321      19.382833
                         11       1    1gx2y2            1.984321      25.023130
                         11       1    1gx2yz            1.984321      43.341332
                         11       1    1gx2z2            1.984321      25.023130
                         11       1    1gxy3             1.984321      19.382833
                         11       1    1gxy2z            1.984321      43.341332
                         11       1    1gxyz2            1.984321      43.341332
                         11       1    1gxz3             1.984321      19.382833
                         11       1    1gy4              1.984321       7.326022
                         11       1    1gy3z             1.984321      19.382833
                         11       1    1gy2z2            1.984321      25.023130
                         11       1    1gyz3             1.984321      19.382833
                         11       1    1gz4              1.984321       7.326022

                         12       1    1ix6              2.226496       9.000363
                         12       1    1ix5y             2.226496      29.850826
                         12       1    1ix5z             2.226496      29.850826
                         12       1    1ix4y2            2.226496      51.703148
                         12       1    1ix4yz            2.226496      89.552479
                         12       1    1ix4z2            2.226496      51.703148
                         12       1    1ix3y3            2.226496      61.175990
                         12       1    1ix3y2z           2.226496     136.793672
                         12       1    1ix3yz2           2.226496     136.793672
                         12       1    1ix3z3            2.226496      61.175990
                         12       1    1ix2y4            2.226496      51.703148
                         12       1    1ix2y3z           2.226496     136.793672
                         12       1    1ix2y2z2          2.226496     176.599871
                         12       1    1ix2yz3           2.226496     136.793672
                         12       1    1ix2z4            2.226496      51.703148
                         12       1    1ixy5             2.226496      29.850826
                         12       1    1ixy4z            2.226496      89.552479
                         12       1    1ixy3z2           2.226496     136.793672
                         12       1    1ixy2z3           2.226496     136.793672
                         12       1    1ixyz4            2.226496      89.552479
                         12       1    1ixz5             2.226496      29.850826
                         12       1    1iy6              2.226496       9.000363
                         12       1    1iy5z             2.226496      29.850826
                         12       1    1iy4z2            2.226496      51.703148
                         12       1    1iy3z3            2.226496      61.175990
                         12       1    1iy2z4            2.226496      51.703148
                         12       1    1iyz5             2.226496      29.850826
                         12       1    1iz6              2.226496       9.000363

                         13       1    1fx3              2.442348      10.977954
                         13       1    1fx2y             2.442348      24.547452
                         13       1    1fx2z             2.442348      24.547452
                         13       1    1fxy2             2.442348      24.547452
                         13       1    1fxyz             2.442348      42.517435
                         13       1    1fxz2             2.442348      24.547452
                         13       1    1fy3              2.442348      10.977954
                         13       1    1fy2z             2.442348      24.547452
                         13       1    1fyz2             2.442348      24.547452
                         13       1    1fz3              2.442348      10.977954

                         14       1    1px               3.140498       5.959204
                         14       1    1py               3.140498       5.959204
                         14       1    1pz               3.140498       5.959204

                         15       1    1dx2              3.456503      14.421954
                         15       1    1dxy              3.456503      24.979557
                         15       1    1dxz              3.456503      24.979557
                         15       1    1dy2              3.456503      14.421954
                         15       1    1dyz              3.456503      24.979557
                         15       1    1dz2              3.456503      14.421954

                         16       1    1hx5              4.429012      93.506425
                         16       1    1hx4y             4.429012     280.519274
                         16       1    1hx4z             4.429012     280.519274
                         16       1    1hx3y2            4.429012     428.500269
                         16       1    1hx3yz            4.429012     742.184237
                         16       1    1hx3z2            4.429012     428.500269
                         16       1    1hx2y3            4.429012     428.500269
                         16       1    1hx2y2z           4.429012     958.155730
                         16       1    1hx2yz2           4.429012     958.155730
                         16       1    1hx2z3            4.429012     428.500269
                         16       1    1hxy4             4.429012     280.519274
                         16       1    1hxy3z            4.429012     742.184237
                         16       1    1hxy2z2           4.429012     958.155730
                         16       1    1hxyz3            4.429012     742.184237
                         16       1    1hxz4             4.429012     280.519274
                         16       1    1hy5              4.429012      93.506425
                         16       1    1hy4z             4.429012     280.519274
                         16       1    1hy3z2            4.429012     428.500269
                         16       1    1hy2z3            4.429012     428.500269
                         16       1    1hyz4             4.429012     280.519274
                         16       1    1hz5              4.429012      93.506425

                         17       1    1gx4              6.427916     185.621576
                         17       1    1gx3y             6.427916     491.108528
                         17       1    1gx3z             6.427916     491.108528
                         17       1    1gx2y2            6.427916     634.018383
                         17       1    1gx2yz            6.427916    1098.152053
                         17       1    1gx2z2            6.427916     634.018383
                         17       1    1gxy3             6.427916     491.108528
                         17       1    1gxy2z            6.427916    1098.152053
                         17       1    1gxyz2            6.427916    1098.152053
                         17       1    1gxz3             6.427916     491.108528
                         17       1    1gy4              6.427916     185.621576
                         17       1    1gy3z             6.427916     491.108528
                         17       1    1gy2z2            6.427916     634.018383
                         17       1    1gyz3             6.427916     491.108528
                         17       1    1gz4              6.427916     185.621576

                         18       1    1s                8.479764       3.541587

                         19       1    1px               8.953653      22.077018
                         19       1    1py               8.953653      22.077018
                         19       1    1pz               8.953653      22.077018

                         20       1    1dx2              9.321805      81.852977
                         20       1    1dxy              9.321805     141.773515
                         20       1    1dxz              9.321805     141.773515
                         20       1    1dy2              9.321805      81.852977
                         20       1    1dyz              9.321805     141.773515
                         20       1    1dz2              9.321805      81.852977

                         21       1    1fx3              9.907249     256.359181
                         21       1    1fx2y             9.907249     573.236556
                         21       1    1fx2z             9.907249     573.236556
                         21       1    1fxy2             9.907249     573.236556
                         21       1    1fxyz             9.907249     992.874840
                         21       1    1fxz2             9.907249     573.236556
                         21       1    1fy3              9.907249     256.359181
                         21       1    1fy2z             9.907249     573.236556
                         21       1    1fyz2             9.907249     573.236556
                         21       1    1fz3              9.907249     256.359181

                         22       1    1dx2             23.259092     405.458846
                         22       1    1dxy             23.259092     702.275322
                         22       1    1dxz             23.259092     702.275322
                         22       1    1dy2             23.259092     405.458846
                         22       1    1dyz             23.259092     702.275322
                         22       1    1dz2             23.259092     405.458846

       Atomic covalent radius [Angstrom]:                                  0.730

       Atomic van der Waals radius [Angstrom]:                             1.520

     The atoms of this atomic kind are PAW atoms (GAPW):
       Hard Gaussian function radius:                                      1.512
       Rho0 radius:                                                        1.512
       Maximum GTO radius used for PAW projector construction:            24.566

     GAPW Soft Basis Set                                  SVP-MOLOPT-GGA-ae_soft

       Number of orbital shell sets:                                           2
       Number of orbital shells:                                               6
       Number of primitive Cartesian functions:                                5
       Number of Cartesian basis functions:                                   15
       Number of spherical basis functions:                                   14
       Norm type:                                                              2

       Normalised Cartesian orbitals:

                        Set   Shell   Orbital            Exponent    Coefficient

                          1       1    2px               2.907977       2.082711
                                                         0.750068       0.626550
                                                         0.191936       0.023686
                          1       1    2py               2.907977       2.082711
                                                         0.750068       0.626550
                                                         0.191936       0.023686
                          1       1    2pz               2.907977       2.082711
                                                         0.750068       0.626550
                                                         0.191936       0.023686

                          1       2    3px               2.907977      -0.566756
                                                         0.750068      -0.157257
                                                         0.191936       0.196557
                          1       2    3py               2.907977      -0.566756
                                                         0.750068      -0.157257
                                                         0.191936       0.196557
                          1       2    3pz               2.907977      -0.566756
                                                         0.750068      -0.157257
                                                         0.191936       0.196557

                          1       3    3dx2              2.907977       1.586204
                                                         0.750068       0.724129
                                                         0.191936       0.030414
                          1       3    3dxy              2.907977       2.747386
                                                         0.750068       1.254227
                                                         0.191936       0.052678
                          1       3    3dxz              2.907977       2.747386
                                                         0.750068       1.254227
                                                         0.191936       0.052678
                          1       3    3dy2              2.907977       1.586204
                                                         0.750068       0.724129
                                                         0.191936       0.030414
                          1       3    3dyz              2.907977       2.747386
                                                         0.750068       1.254227
                                                         0.191936       0.052678
                          1       3    3dz2              2.907977       1.586204
                                                         0.750068       0.724129
                                                         0.191936       0.030414

                          2       1    1s                0.941883       0.076823
                                                         0.293338      -0.001581

                          2       2    2s                0.941883       0.386056
                                                         0.293338       0.124568

                          2       3    3s                0.941883      -0.735854
                                                         0.293338       0.411906

     AE Potential information for                                            ALL

       Description:                                       All-electron potential
                                          Krack, Parrinello, PCCP 2, 2105 (2000)

       Gaussian exponent of the core charge distribution:               8.154466
       Electronic configuration (s p d ...):                           4   4   0

  2. Atomic kind: N                                     Number of atoms:       4

     Orbital Basis Set                                         SVP-MOLOPT-GGA-ae

       Number of orbital shell sets:                                           2
       Number of orbital shells:                                               6
       Number of primitive Cartesian functions:                               11
       Number of Cartesian basis functions:                                   15
       Number of spherical basis functions:                                   14
       Norm type:                                                              2

       Normalised Cartesian orbitals:

                        Set   Shell   Orbital            Exponent    Coefficient

                          1       1    2px              12.268174      -2.349358
                                                         2.325354      -1.380142
                                                         0.634073      -0.492962
                                                         0.166384      -0.031930
                          1       1    2py              12.268174      -2.349358
                                                         2.325354      -1.380142
                                                         0.634073      -0.492962
                                                         0.166384      -0.031930
                          1       1    2pz              12.268174      -2.349358
                                                         2.325354      -1.380142
                                                         0.634073      -0.492962
                                                         0.166384      -0.031930

                          1       2    3px              12.268174      -0.998521
                                                         2.325354      -0.809234
                                                         0.634073      -0.220766
                                                         0.166384       0.169694
                          1       2    3py              12.268174      -0.998521
                                                         2.325354      -0.809234
                                                         0.634073      -0.220766
                                                         0.166384       0.169694
                          1       2    3pz              12.268174      -0.998521
                                                         2.325354      -0.809234
                                                         0.634073      -0.220766
                                                         0.166384       0.169694

                          1       3    3dx2             12.268174      -0.426175
                                                         2.325354       1.255926
                                                         0.634073       0.555487
                                                         0.166384       0.019402
                          1       3    3dxy             12.268174      -0.738157
                                                         2.325354       2.175327
                                                         0.634073       0.962132
                                                         0.166384       0.033606
                          1       3    3dxz             12.268174      -0.738157
                                                         2.325354       2.175327
                                                         0.634073       0.962132
                                                         0.166384       0.033606
                          1       3    3dy2             12.268174      -0.426175
                                                         2.325354       1.255926
                                                         0.634073       0.555487
                                                         0.166384       0.019402
                          1       3    3dyz             12.268174      -0.738157
                                                         2.325354       2.175327
                                                         0.634073       0.962132
                                                         0.166384       0.033606
                          1       3    3dz2             12.268174      -0.426175
                                                         2.325354       1.255926
                                                         0.634073       0.555487
                                                         0.166384       0.019402

                          2       1    1s             1713.054433      -1.166486
                                                       257.997554      -1.897300
                                                        57.692026      -2.958222
                                                        14.651380      -2.749170
                                                         4.403487      -0.858326
                                                         0.666629       0.012902
                                                         0.191012      -0.002582

                          2       2    2s             1713.054433       0.520658
                                                       257.997554      -0.458166
                                                        57.692026       0.772862
                                                        14.651380       0.000424
                                                         4.403487       0.009155
                                                         0.666629       0.351708
                                                         0.191012       0.079194

                          2       3    3s             1713.054433      -0.270364
                                                       257.997554       0.741400
                                                        57.692026      -1.262420
                                                        14.651380      -0.095292
                                                         4.403487      -0.072962
                                                         0.666629      -0.436823
                                                         0.191012       0.300064

     RI Auxiliary Basis Set                                    aug-cc-pV5Z-OPTRI

       Number of orbital shell sets:                                          22
       Number of orbital shells:                                              22
       Number of primitive Cartesian functions:                               22
       Number of Cartesian basis functions:                                  188
       Number of spherical basis functions:                                  122
       Norm type:                                                              2

       Normalised Cartesian orbitals:

                        Set   Shell   Orbital            Exponent    Coefficient

                          1       1    1gx4              0.134828       0.004501
                          1       1    1gx3y             0.134828       0.011909
                          1       1    1gx3z             0.134828       0.011909
                          1       1    1gx2y2            0.134828       0.015375
                          1       1    1gx2yz            0.134828       0.026630
                          1       1    1gx2z2            0.134828       0.015375
                          1       1    1gxy3             0.134828       0.011909
                          1       1    1gxy2z            0.134828       0.026630
                          1       1    1gxyz2            0.134828       0.026630
                          1       1    1gxz3             0.134828       0.011909
                          1       1    1gy4              0.134828       0.004501
                          1       1    1gy3z             0.134828       0.011909
                          1       1    1gy2z2            0.134828       0.015375
                          1       1    1gyz3             0.134828       0.011909
                          1       1    1gz4              0.134828       0.004501

                          2       1    1px               0.159639       0.143835
                          2       1    1py               0.159639       0.143835
                          2       1    1pz               0.159639       0.143835

                          3       1    1s                0.209162       0.220431

                          4       1    1px               0.436875       0.506275
                          4       1    1py               0.436875       0.506275
                          4       1    1pz               0.436875       0.506275

                          5       1    1hx5              0.527568       0.092843
                          5       1    1hx4y             0.527568       0.278529
                          5       1    1hx4z             0.527568       0.278529
                          5       1    1hx3y2            0.527568       0.425460
                          5       1    1hx3yz            0.527568       0.736918
                          5       1    1hx3z2            0.527568       0.425460
                          5       1    1hx2y3            0.527568       0.425460
                          5       1    1hx2y2z           0.527568       0.951358
                          5       1    1hx2yz2           0.527568       0.951358
                          5       1    1hx2z3            0.527568       0.425460
                          5       1    1hxy4             0.527568       0.278529
                          5       1    1hxy3z            0.527568       0.736918
                          5       1    1hxy2z2           0.527568       0.951358
                          5       1    1hxyz3            0.527568       0.736918
                          5       1    1hxz4             0.527568       0.278529
                          5       1    1hy5              0.527568       0.092843
                          5       1    1hy4z             0.527568       0.278529
                          5       1    1hy3z2            0.527568       0.425460
                          5       1    1hy2z3            0.527568       0.425460
                          5       1    1hyz4             0.527568       0.278529
                          5       1    1hz5              0.527568       0.092843

                          6       1    1s                0.530900       0.443271

                          7       1    1fx3              0.738473       0.744230
                          7       1    1fx2y             0.738473       1.664150
                          7       1    1fx2z             0.738473       1.664150
                          7       1    1fxy2             0.738473       1.664150
                          7       1    1fxyz             0.738473       2.882392
                          7       1    1fxz2             0.738473       1.664150
                          7       1    1fy3              0.738473       0.744230
                          7       1    1fy2z             0.738473       1.664150
                          7       1    1fyz2             0.738473       1.664150
                          7       1    1fz3              0.738473       0.744230

                          8       1    1px               1.004026       1.432588
                          8       1    1py               1.004026       1.432588
                          8       1    1pz               1.004026       1.432588

                          9       1    1dx2              1.119820       2.006406
                          9       1    1dxy              1.119820       3.475197
                          9       1    1dxz              1.119820       3.475197
                          9       1    1dy2              1.119820       2.006406
                          9       1    1dyz              1.119820       3.475197
                          9       1    1dz2              1.119820       2.006406

                         10       1    1s                1.393963       0.914321

                         11       1    1gx4              1.404119       2.830064
                         11       1    1gx3y             1.404119       7.487644
                         11       1    1gx3z             1.404119       7.487644
                         11       1    1gx2y2            1.404119       9.666507
                         11       1    1gx2yz            1.404119      16.742882
                         11       1    1gx2z2            1.404119       9.666507
                         11       1    1gxy3             1.404119       7.487644
                         11       1    1gxy2z            1.404119      16.742882
                         11       1    1gxyz2            1.404119      16.742882
                         11       1    1gxz3             1.404119       7.487644
                         11       1    1gy4              1.404119       2.830064
                         11       1    1gy3z             1.404119       7.487644
                         11       1    1gy2z2            1.404119       9.666507
                         11       1    1gyz3             1.404119       7.487644
                         11       1    1gz4              1.404119       2.830064

                         12       1    1fx3              1.802390       5.541332
                         12       1    1fx2y             1.802390      12.390795
                         12       1    1fx2z             1.802390      12.390795
                         12       1    1fxy2             1.802390      12.390795
                         12       1    1fxyz             1.802390      21.461487
                         12       1    1fxz2             1.802390      12.390795
                         12       1    1fy3              1.802390       5.541332
                         12       1    1fy2z             1.802390      12.390795
                         12       1    1fyz2             1.802390      12.390795
                         12       1    1fz3              1.802390       5.541332

                         13       1    1ix6              1.941471       5.384789
                         13       1    1ix5y             1.941471      17.859326
                         13       1    1ix5z             1.941471      17.859326
                         13       1    1ix4y2            1.941471      30.933260
                         13       1    1ix4yz            1.941471      53.577978
                         13       1    1ix4z2            1.941471      30.933260
                         13       1    1ix3y3            1.941471      36.600727
                         13       1    1ix3y2z           1.941471      81.841714
                         13       1    1ix3yz2           1.941471      81.841714
                         13       1    1ix3z3            1.941471      36.600727
                         13       1    1ix2y4            1.941471      30.933260
                         13       1    1ix2y3z           1.941471      81.841714
                         13       1    1ix2y2z2          1.941471     105.657198
                         13       1    1ix2yz3           1.941471      81.841714
                         13       1    1ix2z4            1.941471      30.933260
                         13       1    1ixy5             1.941471      17.859326
                         13       1    1ixy4z            1.941471      53.577978
                         13       1    1ixy3z2           1.941471      81.841714
                         13       1    1ixy2z3           1.941471      81.841714
                         13       1    1ixyz4            1.941471      53.577978
                         13       1    1ixz5             1.941471      17.859326
                         13       1    1iy6              1.941471       5.384789
                         13       1    1iy5z             1.941471      17.859326
                         13       1    1iy4z2            1.941471      30.933260
                         13       1    1iy3z3            1.941471      36.600727
                         13       1    1iy2z4            1.941471      30.933260
                         13       1    1iyz5             1.941471      17.859326
                         13       1    1iz6              1.941471       5.384789

                         14       1    1px               2.643998       4.805809
                         14       1    1py               2.643998       4.805809
                         14       1    1pz               2.643998       4.805809

                         15       1    1dx2              3.091394      11.862592
                         15       1    1dxy              3.091394      20.546612
                         15       1    1dxz              3.091394      20.546612
                         15       1    1dy2              3.091394      11.862592
                         15       1    1dyz              3.091394      20.546612
                         15       1    1dz2              3.091394      11.862592

                         16       1    1hx5              3.455251      41.725627
                         16       1    1hx4y             3.455251     125.176881
                         16       1    1hx4z             3.455251     125.176881
                         16       1    1hx3y2            3.455251     191.210844
                         16       1    1hx3yz            3.455251     331.186896
                         16       1    1hx3z2            3.455251     191.210844
                         16       1    1hx2y3            3.455251     191.210844
                         16       1    1hx2y2z           3.455251     427.560445
                         16       1    1hx2yz2           3.455251     427.560445
                         16       1    1hx2z3            3.455251     191.210844
                         16       1    1hxy4             3.455251     125.176881
                         16       1    1hxy3z            3.455251     331.186896
                         16       1    1hxy2z2           3.455251     427.560445
                         16       1    1hxyz3            3.455251     331.186896
                         16       1    1hxz4             3.455251     125.176881
                         16       1    1hy5              3.455251      41.725627
                         16       1    1hy4z             3.455251     125.176881
                         16       1    1hy3z2            3.455251     191.210844
                         16       1    1hy2z3            3.455251     191.210844
                         16       1    1hyz4             3.455251     125.176881
                         16       1    1hz5              3.455251      41.725627

                         17       1    1gx4              5.019491      94.026343
                         17       1    1gx3y             5.019491     248.770320
                         17       1    1gx3z             5.019491     248.770320
                         17       1    1gx2y2            5.019491     321.161102
                         17       1    1gx2yz            5.019491     556.267347
                         17       1    1gx2z2            5.019491     321.161102
                         17       1    1gxy3             5.019491     248.770320
                         17       1    1gxy2z            5.019491     556.267347
                         17       1    1gxyz2            5.019491     556.267347
                         17       1    1gxz3             5.019491     248.770320
                         17       1    1gy4              5.019491      94.026343
                         17       1    1gy3z             5.019491     248.770320
                         17       1    1gy2z2            5.019491     321.161102
                         17       1    1gyz3             5.019491     248.770320
                         17       1    1gz4              5.019491      94.026343

                         18       1    1s                6.323282       2.841954

                         19       1    1px               6.613928      15.118699
                         19       1    1py               6.613928      15.118699
                         19       1    1pz               6.613928      15.118699

                         20       1    1dx2              6.959399      49.080615
                         20       1    1dxy              6.959399      85.010119
                         20       1    1dxz              6.959399      85.010119
                         20       1    1dy2              6.959399      49.080615
                         20       1    1dyz              6.959399      85.010119
                         20       1    1dz2              6.959399      49.080615

                         21       1    1fx3              7.060014     119.609855
                         21       1    1fx2y             7.060014     267.455767
                         21       1    1fx2z             7.060014     267.455767
                         21       1    1fxy2             7.060014     267.455767
                         21       1    1fxyz             7.060014     463.246977
                         21       1    1fxz2             7.060014     267.455767
                         21       1    1fy3              7.060014     119.609855
                         21       1    1fy2z             7.060014     267.455767
                         21       1    1fyz2             7.060014     267.455767
                         21       1    1fz3              7.060014     119.609855

                         22       1    1dx2             13.517160     156.840783
                         22       1    1dxy             13.517160     271.656205
                         22       1    1dxz             13.517160     271.656205
                         22       1    1dy2             13.517160     156.840783
                         22       1    1dyz             13.517160     271.656205
                         22       1    1dz2             13.517160     156.840783

       Atomic covalent radius [Angstrom]:                                  0.750

       Atomic van der Waals radius [Angstrom]:                             1.550

     The atoms of this atomic kind are PAW atoms (GAPW):
       Hard Gaussian function radius:                                      1.512
       Rho0 radius:                                                        1.512
       Maximum GTO radius used for PAW projector construction:            24.566

     GAPW Soft Basis Set                                  SVP-MOLOPT-GGA-ae_soft

       Number of orbital shell sets:                                           2
       Number of orbital shells:                                               6
       Number of primitive Cartesian functions:                                5
       Number of Cartesian basis functions:                                   15
       Number of spherical basis functions:                                   14
       Norm type:                                                              2

       Normalised Cartesian orbitals:

                        Set   Shell   Orbital            Exponent    Coefficient

                          1       1    2px               2.325354      -1.380142
                                                         0.634073      -0.492962
                                                         0.166384      -0.031930
                          1       1    2py               2.325354      -1.380142
                                                         0.634073      -0.492962
                                                         0.166384      -0.031930
                          1       1    2pz               2.325354      -1.380142
                                                         0.634073      -0.492962
                                                         0.166384      -0.031930

                          1       2    3px               2.325354      -0.809234
                                                         0.634073      -0.220766
                                                         0.166384       0.169694
                          1       2    3py               2.325354      -0.809234
                                                         0.634073      -0.220766
                                                         0.166384       0.169694
                          1       2    3pz               2.325354      -0.809234
                                                         0.634073      -0.220766
                                                         0.166384       0.169694

                          1       3    3dx2              2.325354       1.255926
                                                         0.634073       0.555487
                                                         0.166384       0.019402
                          1       3    3dxy              2.325354       2.175327
                                                         0.634073       0.962132
                                                         0.166384       0.033606
                          1       3    3dxz              2.325354       2.175327
                                                         0.634073       0.962132
                                                         0.166384       0.033606
                          1       3    3dy2              2.325354       1.255926
                                                         0.634073       0.555487
                                                         0.166384       0.019402
                          1       3    3dyz              2.325354       2.175327
                                                         0.634073       0.962132
                                                         0.166384       0.033606
                          1       3    3dz2              2.325354       1.255926
                                                         0.634073       0.555487
                                                         0.166384       0.019402

                          2       1    1s                0.666629       0.012902
                                                         0.191012      -0.002582

                          2       2    2s                0.666629       0.351708
                                                         0.191012       0.079194

                          2       3    3s                0.666629      -0.436823
                                                         0.191012       0.300064

     AE Potential information for                                            ALL

       Description:                                       All-electron potential
                                          Krack, Parrinello, PCCP 2, 2105 (2000)

       Gaussian exponent of the core charge distribution:               5.979100
       Electronic configuration (s p d ...):                           4   3   0

  3. Atomic kind: C                                     Number of atoms:       6

     Orbital Basis Set                                         SVP-MOLOPT-GGA-ae

       Number of orbital shell sets:                                           2
       Number of orbital shells:                                               6
       Number of primitive Cartesian functions:                               11
       Number of Cartesian basis functions:                                   15
       Number of spherical basis functions:                                   14
       Norm type:                                                              2

       Normalised Cartesian orbitals:

                        Set   Shell   Orbital            Exponent    Coefficient

                          1       1    2px               4.145546       1.425967
                                                         0.937529       0.673511
                                                         0.300899       0.144116
                                                         0.096935       0.005344
                          1       1    2py               4.145546       1.425967
                                                         0.937529       0.673511
                                                         0.300899       0.144116
                                                         0.096935       0.005344
                          1       1    2pz               4.145546       1.425967
                                                         0.937529       0.673511
                                                         0.300899       0.144116
                                                         0.096935       0.005344

                          1       2    3px               4.145546      -0.833488
                                                         0.937529      -0.414500
                                                         0.300899       0.082631
                                                         0.096935       0.066903
                          1       2    3py               4.145546      -0.833488
                                                         0.937529      -0.414500
                                                         0.300899       0.082631
                                                         0.096935       0.066903
                          1       2    3pz               4.145546      -0.833488
                                                         0.937529      -0.414500
                                                         0.300899       0.082631
                                                         0.096935       0.066903

                          1       3    3dx2              4.145546       0.718979
                                                         0.937529       0.830801
                                                         0.300899       0.105504
                                                         0.096935       0.001258
                          1       3    3dxy              4.145546       1.245309
                                                         0.937529       1.438990
                                                         0.300899       0.182739
                                                         0.096935       0.002179
                          1       3    3dxz              4.145546       1.245309
                                                         0.937529       1.438990
                                                         0.300899       0.182739
                                                         0.096935       0.002179
                          1       3    3dy2              4.145546       0.718979
                                                         0.937529       0.830801
                                                         0.300899       0.105504
                                                         0.096935       0.001258
                          1       3    3dyz              4.145546       1.245309
                                                         0.937529       1.438990
                                                         0.300899       0.182739
                                                         0.096935       0.002179
                          1       3    3dz2              4.145546       0.718979
                                                         0.937529       0.830801
                                                         0.300899       0.105504
                                                         0.096935       0.001258

                          2       1    1s             1238.394264      -0.490536
                                                       186.270922       1.801845
                                                        40.805234       2.242010
                                                        10.501907       2.110671
                                                         3.176528       0.666384
                                                         0.523772      -0.029268
                                                         0.161278       0.024253

                          2       2    2s             1238.394264       0.147138
                                                       186.270922      -0.108171
                                                        40.805234       0.350132
                                                        10.501907      -0.033488
                                                         3.176528      -0.079506
                                                         0.523772       0.279468
                                                         0.161278       0.080328

                          2       3    3s             1238.394264     -12.484315
                                                       186.270922       1.755878
                                                        40.805234      -2.174132
                                                        10.501907      -0.974990
                                                         3.176528      -0.308205
                                                         0.523772      -0.382710
                                                         0.161278       0.225687

     RI Auxiliary Basis Set                                    aug-cc-pV5Z-OPTRI

       Number of orbital shell sets:                                          22
       Number of orbital shells:                                              22
       Number of primitive Cartesian functions:                               22
       Number of Cartesian basis functions:                                  188
       Number of spherical basis functions:                                  122
       Norm type:                                                              2

       Normalised Cartesian orbitals:

                        Set   Shell   Orbital            Exponent    Coefficient

                          1       1    1gx4              0.114786       0.002892
                          1       1    1gx3y             0.114786       0.007650
                          1       1    1gx3z             0.114786       0.007650
                          1       1    1gx2y2            0.114786       0.009877
                          1       1    1gx2yz            0.114786       0.017107
                          1       1    1gx2z2            0.114786       0.009877
                          1       1    1gxy3             0.114786       0.007650
                          1       1    1gxy2z            0.114786       0.017107
                          1       1    1gxyz2            0.114786       0.017107
                          1       1    1gxz3             0.114786       0.007650
                          1       1    1gy4              0.114786       0.002892
                          1       1    1gy3z             0.114786       0.007650
                          1       1    1gy2z2            0.114786       0.009877
                          1       1    1gyz3             0.114786       0.007650
                          1       1    1gz4              0.114786       0.002892

                          2       1    1px               0.121920       0.102691
                          2       1    1py               0.121920       0.102691
                          2       1    1pz               0.121920       0.102691

                          3       1    1s                0.152658       0.174060

                          4       1    1px               0.299745       0.316140
                          4       1    1py               0.299745       0.316140
                          4       1    1pz               0.299745       0.316140

                          5       1    1s                0.384933       0.348296

                          6       1    1hx5              0.391317       0.035161
                          6       1    1hx4y             0.391317       0.105483
                          6       1    1hx4z             0.391317       0.105483
                          6       1    1hx3y2            0.391317       0.161128
                          6       1    1hx3yz            0.391317       0.279083
                          6       1    1hx3z2            0.391317       0.161128
                          6       1    1hx2y3            0.391317       0.161128
                          6       1    1hx2y2z           0.391317       0.360294
                          6       1    1hx2yz2           0.391317       0.360294
                          6       1    1hx2z3            0.391317       0.161128
                          6       1    1hxy4             0.391317       0.105483
                          6       1    1hxy3z            0.391317       0.279083
                          6       1    1hxy2z2           0.391317       0.360294
                          6       1    1hxyz3            0.391317       0.279083
[...]
 rs_gather_matrices                  57 10.0    0.001    0.005    0.990    1.072
 grid_integrate_task_list            57 10.0    0.070    1.015    0.070    1.015
 calc_pair_dist_radii                 1 10.0    0.314    0.318    0.843    1.009
 xc_functional_eval                 280 10.8    0.000    0.001    0.792    0.998
 pbe_lda_eval                       280 11.8    0.792    0.998    0.792    0.998
 pw_scatter_p                       621 12.1    0.810    0.935    0.810    0.935
 mp_sendrecv_dv                   24510 10.0    0.905    0.933    0.905    0.933
 gaVxcgb_GC                         112  9.0    0.029    0.870    0.029    0.870
 mp_sum_dv                        17506 11.3    0.658    0.790    0.658    0.790
 qs_energies_init_hamiltonians        1  3.0    0.000    0.000    0.770    0.771
 build_core_hamiltonian_matrix        1  4.0    0.000    0.000    0.759    0.759
 overlap_condnum                      1  5.0    0.000    0.000    0.756    0.757
 cp2k_distribution_to_z_slices       57  9.0    0.263    0.287    0.601    0.736
 transfer_pw2rs_90                   57 12.0    0.143    0.172    0.631    0.730
 rs_grid_zero                       287 11.1    0.676    0.709    0.676    0.709
 pw_gather_p                        567 11.8    0.628    0.707    0.628    0.707
 fft_wrap_pw1pw2_90                 114 10.5    0.017    0.026    0.605    0.687
 transfer_rs2pw_90                   57  9.0    0.141    0.171    0.580    0.679
 arnoldi_conjugate_gradient           5  6.0    0.015    0.019    0.645    0.645
 pw_poisson_rebuild                  57  9.0    0.000    0.000    0.610    0.633
 ps_wavelet_create                    1 10.0    0.000    0.000    0.610    0.633
 RS_z_slice_distribution              1 11.0    0.501    0.588    0.610    0.633
 mp_bcast_i_src                    1424  7.0    0.376    0.619    0.376    0.619
 compute_vec_Sigma_x_minus_vxc_       1  4.0    0.000    0.000    0.603    0.604
 pw_derive                          507 11.3    0.554    0.598    0.554    0.598
 mp_isendrecv_dv                  49020 12.0    0.320    0.594    0.320    0.594
 mp_bcast_am_src                    356  7.0    0.426    0.521    0.457    0.549
 create_B                             1  8.0    0.000    0.000    0.501    0.511
 pw_copy                            850 10.6    0.426    0.465    0.426    0.465
 dbt_total                            8  8.0    0.000    0.000    0.462    0.462
 dbt_contract                         4  9.0    0.001    0.001    0.431    0.433
 calculate_rho_atom                 228  9.0    0.174    0.427    0.174    0.427
 calculate_dm_sparse                 56  6.0    0.000    0.001    0.406    0.412
 cp_dbcsr_plus_fm_fm_t               56  7.0    0.001    0.001    0.405    0.411
 create_A                             1  8.0    0.001    0.002    0.401    0.406
 dbcsr_sym_matrix_vector_mult      2110  7.0    0.034    0.039    0.362    0.394
 dbcsr_complete_redistribute        227  8.5    0.015    0.018    0.380    0.386
 pw_copy_to_array                   567 11.8    0.242    0.383    0.242    0.383
 transfer_pw2rs_10                   57 12.0    0.136    0.171    0.363    0.378
 transfer_rs2pw_10                   57  9.0    0.138    0.148    0.366    0.374
 dbt_tas_multiply                     8 11.5    0.000    0.000    0.360    0.361
 dbt_tas_total                        8 12.5    0.002    0.002    0.360    0.360
 mp_sum_l                          1035  6.3    0.315    0.355    0.315    0.355
 mp2_main_alloc_hfx                   1  4.0    0.174    0.354    0.174    0.354
 pw_poisson_set                      58  8.9    0.001    0.002    0.339    0.347
 integrate_four_center_load          57 10.0    0.000    0.001    0.303    0.340
 hfx_load_balance                     1 11.0    0.000    0.000    0.303    0.340
 mp_sum_i                            21  9.7    0.181    0.329    0.181    0.329
 restraint_control                    1  2.0    0.000    0.000    0.180    0.328
 init_scf_run                         1  3.0    0.000    0.000    0.323    0.323
 hfx_load_balance_range               1 12.0    0.000    0.000    0.278    0.315
 mp_isend_dm3                      2064 11.5    0.129    0.311    0.129    0.311
 cp_fm_to_fm_submat_general         112 10.1    0.224    0.311    0.224    0.311
 copy_dbcsr_to_fm                   111  6.9    0.002    0.002    0.291    0.298
 mp_irecv_dm3                      2064 11.5    0.145    0.292    0.145    0.292
 scf_env_initial_rho_setup            1  4.0    0.000    0.001    0.286    0.286
 dbcsr_multiply_generic             149  8.1    0.006    0.007    0.256    0.269
 pw_integral_ab_c1d_c1d_gs           57  9.0    0.185    0.187    0.246    0.268
 mp_max_i                           599  2.7    0.118    0.263    0.118    0.263
 cp_fm_syrk                           3  7.0    0.250    0.253    0.250    0.253
 Vh_1c_gg_integrals                  57  8.0    0.006    0.066    0.121    0.252
 mp_alltoall_z11v                   228 13.5    0.238    0.249    0.238    0.249
 fft_wrap_pw1pw2_30                 114 10.5    0.003    0.004    0.234    0.245
 copy_fm_to_dbcsr                   116  8.1    0.000    0.001    0.235    0.239
 pw_axpy                            565  9.3    0.205    0.236    0.205    0.236
 pw_copy_from_array                 621 12.1    0.186    0.232    0.186    0.232
 dbt_tas_dbm                          8 13.5    0.000    0.000    0.231    0.231
 cp_fm_uplo_to_full                 104  8.0    0.139    0.230    0.139    0.230
 dbm_multiply                         8 15.5    0.216    0.228    0.216    0.228
 Q_trace_and_add_unit_matrix        100  8.0    0.008    0.010    0.148    0.219
 mult_B_with_W                        1  8.0    0.000    0.000    0.208    0.210
 dbcsr_add_d                       3208  7.0    0.003    0.004    0.031    0.207
 dbcsr_add_anytype                 3208  8.0    0.004    0.025    0.028    0.203
 dbt_tas_mm_1N                        6 14.5    0.000    0.000    0.191    0.202
 update_ks_atom                      57  8.0    0.017    0.025    0.159    0.200
 dbcsr_desymmetrize_deep            113  7.9    0.004    0.005    0.193    0.196
 mp_bcast_dm                       2280  9.0    0.142    0.183    0.142    0.183
 mp_isend_dv                      18212 11.9    0.131    0.178    0.131    0.178
 qs_init_subsys                       1  2.0    0.005    0.009    0.170    0.171
 mp_alltoall_i11v                   794  9.4    0.168    0.170    0.168    0.170
 dbcsr_col_vec_to_rep_row          2110  8.0    0.015    0.018    0.132    0.169
 qs_env_setup                         1  3.0    0.000    0.000    0.158    0.161
 qs_env_rebuild_pw_env                2  3.5    0.000    0.000    0.157    0.160
 pw_env_rebuild                       1  5.0    0.001    0.001    0.157    0.160
 offload_free_buffer                 65  8.3    0.132    0.158    0.132    0.158
 fm_general_add_bse                   5 10.2    0.000    0.000    0.138    0.154
 yz_to_xz                           114 14.0    0.010    0.011    0.140    0.149
 dbcsr_rep_row_to_rep_col_vec      2110  8.0    0.011    0.013    0.063    0.148
 pw_grid_setup                        4  6.0    0.000    0.000    0.139    0.142
 hybrid_alltoall_any                411 11.2    0.013    0.014    0.137    0.142
 pw_grid_setup_internal               4  7.0    0.003    0.004    0.139    0.142
 dbcsr_finalize                    4552 10.6    0.009    0.045    0.033    0.137
 create_integ_mat                     4  6.0    0.003    0.003    0.133    0.135
 cp_fm_redistribute_start            62  8.0    0.078    0.089    0.110    0.130
 integrate_four_center_getP          57 10.0    0.020    0.021    0.123    0.129
 mp_bcast_dv                       2172  9.0    0.065    0.129    0.065    0.129
 array2fm                             4  7.0    0.000    0.000    0.101    0.129
 fft_wrap_pw1pw2_10                 114 10.5    0.001    0.001    0.127    0.129
 multiply_cannon                    149  9.1    0.014    0.015    0.118    0.124
 pw_zero                            338 10.3    0.110    0.124    0.110    0.124
 xz_to_yz                           114 11.0    0.007    0.008    0.115    0.119
 make_m2s                           298  9.1    0.005    0.005    0.103    0.108
 integrate_four_center_dist_KS       57 10.0    0.020    0.022    0.108    0.108
 get_2c_integrals                     1  6.0    0.000    0.000    0.107    0.108
 abc_contract                      3045  9.0    0.045    0.107    0.045    0.107
 dbt_tas_estimate_result_nze          4 12.0    0.002    0.005    0.102    0.104
 mp_rank_compare                   1188 12.9    0.097    0.100    0.097    0.100
 multiply_cannon_loop               149 10.1    0.015    0.016    0.086    0.092
 dbt_copy                            12 10.1    0.000    0.000    0.072    0.078
 make_images                        298 10.1    0.016    0.018    0.066    0.071
 pw_grid_sort                         4  8.0    0.043    0.045    0.066    0.069
 array2fm_info                        4  8.0    0.049    0.067    0.049    0.068
 cp_fm_symm                          57  7.0    0.061    0.068    0.061    0.068
 postprocess_bse                      1  9.0    0.000    0.000    0.065    0.067
 dbcsr_copy                        9113  7.6    0.033    0.039    0.054    0.066
 dbcsr_iterator_start             27094  8.8    0.033    0.053    0.039    0.066
 dbcsr_merge_all                   3853 11.3    0.012    0.053    0.019    0.066
 vxc_of_r_new                       224  9.0    0.000    0.010    0.003    0.065
 scale_and_distribute               114 10.0    0.056    0.061    0.056    0.061
 mp_bcast_iv                        437  6.9    0.032    0.060    0.032    0.060
 scf_post_calculation_gpw             1  3.0    0.000    0.000    0.059    0.059
 write_available_results              1  4.0    0.000    0.000    0.058    0.059
 write_mo_free_results                1  5.0    0.003    0.004    0.058    0.058
 mp_alltoall_i22                    340  9.3    0.048    0.057    0.048    0.057
 rs_scatter_matrices                 57  7.0    0.001    0.001    0.054    0.055
 calculate_rho0_atom                228  9.0    0.054    0.055    0.054    0.055
 mp_sum_iv                          335  9.7    0.042    0.054    0.042    0.054
 dbt_reshape                          8 11.6    0.016    0.020    0.048    0.053
 mp_comm_split_direct                48 14.5    0.037    0.051    0.037    0.051
 pw_scale                           225  9.5    0.038    0.048    0.038    0.048
 array2fm_fill                        4  8.0    0.008    0.009    0.018    0.048
 dbt_remap                            8 10.0    0.002    0.002    0.047    0.047
 mixing_init                          1  5.0    0.041    0.044    0.045    0.045
 compute_2c_integrals                 1  7.0    0.001    0.001    0.042    0.043
 dbcsr_create_new                 11472  9.0    0.029    0.034    0.037    0.043
 array2fm_buffer_send                 4  8.0    0.026    0.043    0.026    0.043
 dbcsr_iterator_stop              27094  8.8    0.024    0.035    0.029    0.043
 mp_bcast_iv_src                    356  7.0    0.016    0.040    0.016    0.040
 mp_wait                             96  9.0    0.010    0.040    0.010    0.040
 dbt_distribution_new_expert         76 10.1    0.001    0.002    0.037    0.039
 fm_general_add_bse_1_setup           5 11.2    0.032    0.038    0.032    0.038
 fm_general_add_bse_5_comm_buff       5 11.2    0.000    0.000    0.028    0.038
 communicate_buffer                   5 12.2    0.001    0.001    0.028    0.038
 dbt_split_blocks_generic            20  8.8    0.011    0.012    0.037    0.037
 mp_maxloc_dv                      1533  1.0    0.035    0.037    0.035    0.037
 dbm_redistribute                     9 13.7    0.031    0.036    0.031    0.036
 mp_waitall_2                        50 15.7    0.029    0.035    0.029    0.035
 create_fast_row_vec_access        4220  8.0    0.018    0.022    0.027    0.033
 ao_to_mo_and_store_B_mult_gw_1      11  7.0    0.000    0.000    0.025    0.032
 create_fast_col_vec_access        4220  8.0    0.018    0.021    0.027    0.032
 convert_to_new_pgrid                24 13.5    0.006    0.008    0.027    0.031
 dbt_tas_replicate                    8 13.5    0.011    0.015    0.030    0.031
 get_multipoles_mo                    1 10.0    0.000    0.000    0.029    0.031
 cube_transpose_2                   114 11.0    0.002    0.003    0.024    0.031
 fm_general_add_bse_4_buf_from_       1 10.0    0.023    0.030    0.023    0.030
 dbt_tas_distribution_new            96 11.8    0.020    0.021    0.030    0.030
 fm_general_add_bse_4_buf_from_       1 10.0    0.024    0.030    0.024    0.030
 dbt_communicate_buffer               8 12.6    0.001    0.001    0.027    0.029
 compute_2c_integrals_loop_lm         1  8.0    0.000    0.000    0.014    0.029
 write_mo_set_to_restart             56  5.0    0.001    0.016    0.018    0.029
 mp2_eri_2c_integrate                 1  9.0    0.001    0.002    0.014    0.029
 multiply_cannon_multrec           2284 11.1    0.021    0.028    0.022    0.029
 hirshfeld_integration                1  6.0    0.001    0.007    0.028    0.028
 integrate_set_2c                  2050 10.0    0.011    0.025    0.012    0.028
 mp_sum_im                        10879 13.0    0.022    0.028    0.022    0.028
 print_transition_amplitudes          1 10.0    0.000    0.000    0.028    0.028
 print_transition_amplitudes_co      50 11.0    0.000    0.001    0.028    0.028
 filter_eigvec_contrib               50 12.0    0.016    0.017    0.027    0.028
 array2fm_waitall                     4  8.0    0.000    0.000    0.003    0.027
 mp_irecv_dv                      18190 11.9    0.018    0.027    0.018    0.027
 write_mo_set_low                     3  6.0    0.000    0.000    0.017    0.027
 cp_fm_write_unformatted              3  7.0    0.016    0.016    0.017    0.027
 calc_fm_mat_S_rpa                  100  9.0    0.015    0.026    0.015    0.026
 dbt_tas_mm_2                         2 14.5    0.000    0.000    0.026    0.026
 cp_fm_create                       309  7.8    0.017    0.025    0.017    0.025
 cholesky_decomp                      1  7.0    0.000    0.000    0.023    0.025
 sort_shells                          4  9.0    0.024    0.025    0.024    0.025
 ao_to_mo_and_store_B_mult_bse_      11  7.0    0.000    0.000    0.021    0.024
 dbm_reserve_blocks                  68 14.1    0.019    0.024    0.019    0.024
 calculate_hirshfeld_normalizat       1  6.0    0.001    0.008    0.022    0.024
 dbcsr_work_create                 4427 10.5    0.004    0.015    0.006    0.023
 make_images_data                   298 11.1    0.003    0.004    0.019    0.023
 dbcsr_work_destroy_all            4427 11.4    0.004    0.017    0.005    0.023
 invert_mat                           1  7.0    0.000    0.000    0.022    0.023
 cp_fm_triangular_invert              1  8.0    0.022    0.023    0.022    0.023
 dbcsr_crop_matrix                  280 10.0    0.002    0.002    0.020    0.022
 pw_grid_distribute                   4  8.0    0.010    0.010    0.016    0.022
 cube_transpose_1                   114 14.0    0.002    0.002    0.020    0.022
 make_images_sizes                  298 11.1    0.000    0.000    0.018    0.021
 dbt_tas_reserve_blocks_index        60 13.0    0.000    0.001    0.016    0.021
 mp_alltoall_i44                    298 12.1    0.018    0.021    0.018    0.021
 grep_Lcols                           1  7.0    0.000    0.000    0.020    0.021
 mp_sendrecv_dm2                    261  7.3    0.014    0.021    0.014    0.021
 mp2_main_free_hfx                    1  4.0    0.010    0.021    0.010    0.021
 grep_Lcols_comm                      1  8.0    0.008    0.010    0.020    0.021
 dbt_tas_reshape                      9 14.0    0.000    0.000    0.019    0.021
 cp_dbcsr_sm_fm_multiply              3 11.0    0.000    0.000    0.020    0.020
 ao_to_mo_and_store_B_mult_1         11  7.0    0.000    0.000    0.017    0.020
 ao_to_mo_and_store_B_E_Ex_gw_1      11  7.0    0.008    0.009    0.017    0.020
 dbcsr_data_release               57894 10.2    0.011    0.020    0.011    0.020
 dbcsr_scale_anytype               3209  9.0    0.006    0.007    0.016    0.019
 multiply_cannon_metrocomm3        2284 11.1    0.004    0.004    0.014    0.019
 dbt_create_new                      40  9.5    0.001    0.001    0.019    0.019
 mp_bcast_av                        767  1.0    0.006    0.008    0.014    0.018
 fm_general_add_bse_6_buffer_to       1 10.0    0.010    0.018    0.010    0.018
 mp_cart_rank                     59736  9.9    0.016    0.017    0.016    0.017
 mp_cart_sub                        228  8.9    0.017    0.017    0.017    0.017
 dbcsr_sym_matrix_vector_mult_l    2110  8.0    0.009    0.010    0.015    0.017
 dbcsr_copy_submatrix               280 11.0    0.002    0.003    0.016    0.017
 mp_alltoall_i                       40 13.9    0.014    0.017    0.014    0.017
 self_consistency_check              56  5.0    0.000    0.000    0.013    0.017
 dbt_reserve_blocks_index            36 10.8    0.000    0.001    0.012    0.016
 cp_sm_mix                           56  6.0    0.000    0.001    0.013    0.016
 dbt_tas_communicate_buffer          17 15.8    0.002    0.002    0.014    0.016
 mp_max_d                            58  6.9    0.013    0.016    0.013    0.016
 truncate_BSE_matrices                1  8.0    0.000    0.000    0.014    0.016
 pw_grid_remap                        4  8.0    0.003    0.003    0.013    0.016
 ao_to_mo_and_store_B_mult_bse_      11  7.0    0.000    0.000    0.014    0.015
 pw_grid_assign                       4  8.0    0.013    0.014    0.015    0.015
 dbt_tas_create_split                44 13.2    0.000    0.000    0.014    0.015
 dbt_tas_create_split_rows_or_c      44 14.2    0.000    0.000    0.014    0.014
 dbcsr_destroy                     7197  8.6    0.008    0.011    0.011    0.014
 dbt_split_copyback                   4 10.0    0.009    0.011    0.012    0.014
 xc_pw_smooth                        56 10.0    0.000    0.000    0.012    0.014
 multiply_cannon_metrocomm4        2074 11.1    0.006    0.007    0.012    0.014
 reshape_mm_small                     8 13.5    0.002    0.002    0.014    0.014
 hfx_create                           1  2.0    0.013    0.014    0.013    0.014
 dbcsr_data_new                   28039 10.7    0.007    0.013    0.007    0.013
 dbcsr_iterator_seek              27094  9.8    0.006    0.013    0.006    0.013
 dbt_reserve_blocks_index_array      28 10.6    0.000    0.000    0.010    0.013
 mp_sum_im3                           4  9.0    0.010    0.013    0.010    0.013
 multiply_cannon_metrocomm1        2284 11.1    0.003    0.003    0.008    0.013
 mp_allgather_i34                   149 10.1    0.010    0.013    0.010    0.013
 compute_max_radius                   1  6.0    0.012    0.012    0.012    0.012
 dbt_nd_mp_comm                       8 11.0    0.000    0.000    0.009    0.012
 dbcsr_set                         8873  8.5    0.008    0.009    0.010    0.012
 -------------------------------------------------------------------------------

 The number of warnings for this run is : 1
 
 -------------------------------------------------------------------------------
  **** **** ******  **  PROGRAM ENDED AT                 2025-03-29 08:35:33.316
 ***** ** ***  *** **   PROGRAM RAN ON                              i03r10c03s05
 **    ****   ******    PROGRAM RAN BY                                   di38fab
 ***** **    ** ** **   PROGRAM PROCESS ID                                856356
  **** **  *******  **  PROGRAM STOPPED IN /hppfs/scratch/04/di38fab/07_MOL_non_
                                           aug/05_MOL_non_aug/05_MOL/aUKBqsEOTmq
                                           69kFe5R_nOg/5k_set_final_qzvp/NEFFOT/
                                           SZV/GW+BSE
