 DBCSR| CPU Multiplication driver                                           BLAS (U)
 DBCSR| Multrec recursion limit                                              512 (U)
 DBCSR| Multiplication stack size                                           1000 (D)
 DBCSR| Maximum elements for images                                    UNLIMITED (U)
 DBCSR| Multiplicative factor virtual images                                   1 (U)
 DBCSR| Use multiplication densification                                       T (D)
 DBCSR| Multiplication size stacks                                             3 (U)
 DBCSR| Use memory pool for CPU allocation                                     F (U)
 DBCSR| Number of 3D layers                                               SINGLE (U)
 DBCSR| Use MPI memory allocation                                              F (U)
 DBCSR| Use RMA algorithm                                                      F (U)
 DBCSR| Use Communication thread                                               T (U)
 DBCSR| Communication thread load                                             75 (D)
 DBCSR| MPI: My process id                                                     0
 DBCSR| MPI: Number of processes                                              96
 DBCSR| OMP: Current number of threads                                         4
 DBCSR| OMP: Max number of threads                                             4
 DBCSR| Split modifier for TAS multiplication algorithm                  1.0E+00 (U)


  **** **** ******  **  PROGRAM STARTED AT               2025-04-12 02:46:50.668
 ***** ** ***  *** **   PROGRAM STARTED ON                          i03r05c05s01
 **    ****   ******    PROGRAM STARTED BY                               di38fab
 ***** **    ** ** **   PROGRAM PROCESS ID                               1851314
  **** **  *******  **  PROGRAM STARTED IN /hppfs/scratch/04/di38fab/05_MOL/W4-1
                                           1+ALK/p4/aug-cc-pVQZ/TDDFT

 CP2K| version string:                 CP2K version 2025.1 (Development Version)
 CP2K| source code revision number:                             unknown revision
 CP2K| cp2kflags: omp libint fftw3 libxc parallel scalapack max_contr=4         
 CP2K| is freely available from                            https://www.cp2k.org/
 CP2K| Program compiled at                         Thu Apr 10 16:20:23 CEST 2025
 CP2K| Program compiled on                                               login01
 CP2K| Program compiled for                                        Supermuc-foss
 CP2K| Data directory path                  /hppfs/work/pn36zo/di38fab/cp2k/data
 CP2K| Input file name                                                    GW.inp

 GLOBAL| Force Environment number                                              1
 GLOBAL| Basis set file name            /hppfs/scratch/04/di38fab/04_TMD/BASIS_A
 GLOBAL| Potential file name            /hppfs/work/pn36zo/di38fab/cp2k/data/ALL
 GLOBAL| MM Potential file name                                     MM_POTENTIAL
 GLOBAL| Coordinate file name                                      __STD_INPUT__
 GLOBAL| Method name                                                        CP2K
 GLOBAL| Project name                                                       MoS2
 GLOBAL| Run type                                                         ENERGY
 GLOBAL| FFT library                                                       FFTW3
 GLOBAL| Diagonalization library                                       ScaLAPACK
 GLOBAL| DGEMM library                                                      BLAS
 GLOBAL| Orthonormality check for eigenvectors                          DISABLED
 GLOBAL| Matrix multiplication library                                 ScaLAPACK
 GLOBAL| All-to-all communication in single precision                          F
 GLOBAL| FFTs using library dependent lengths                                  F
 GLOBAL| Grid backend                                                       AUTO
 GLOBAL| Global print level                                               MEDIUM
 GLOBAL| MPI I/O enabled                                                       T
 GLOBAL| Total number of message passing processes                            96
 GLOBAL| Number of threads for this process                                    4
 GLOBAL| This output is from process                                           0
 GLOBAL| OpenMP stack size per thread (OMP_STACKSIZE)                    default
 GLOBAL| CPU model name             Intel(R) Xeon(R) Platinum 8174 CPU @ 3.10GHz

 MEMORY| system memory details [Kb]
 MEMORY|                        rank 0           min           max       average
 MEMORY| MemTotal             98436664      98436644      98436708      98436665
 MEMORY| MemFree              85134328      84542404      85134328      84994558
 MEMORY| Buffers                     0             0             0             0
 MEMORY| Cached                2380672       2369776       2387176       2377419
 MEMORY| Slab                  1083636       1081004       1098512       1087688
 MEMORY| SReclaimable           249640        248516        256120        252660
 MEMORY| MemLikelyFree        87764640      87180300      87764640      87624638


 *** Fundamental physical constants (SI units) ***

 *** Literature: B. J. Mohr and B. N. Taylor,
 ***             CODATA recommended values of the fundamental physical
 ***             constants: 2006, Web Version 5.1
 ***             http://physics.nist.gov/constants

 Speed of light in vacuum [m/s]                             2.99792458000000E+08
 Magnetic constant or permeability of vacuum [N/A**2]       1.25663706143592E-06
 Electric constant or permittivity of vacuum [F/m]          8.85418781762039E-12
 Planck constant (h) [J*s]                                  6.62606896000000E-34
 Planck constant (h-bar) [J*s]                              1.05457162825177E-34
 Elementary charge [C]                                      1.60217648700000E-19
 Electron mass [kg]                                         9.10938215000000E-31
 Electron g factor [ ]                                     -2.00231930436220E+00
 Proton mass [kg]                                           1.67262163700000E-27
 Fine-structure constant                                    7.29735253760000E-03
 Rydberg constant [1/m]                                     1.09737315685270E+07
 Avogadro constant [1/mol]                                  6.02214179000000E+23
 Boltzmann constant [J/K]                                   1.38065040000000E-23
 Atomic mass unit [kg]                                      1.66053878200000E-27
 Bohr radius [m]                                            5.29177208590000E-11

 *** Conversion factors ***

 [u] -> [a.u.]                                              1.82288848426455E+03
 [Angstrom] -> [Bohr] = [a.u.]                              1.88972613288564E+00
 [a.u.] = [Bohr] -> [Angstrom]                              5.29177208590000E-01
 [a.u.] -> [s]                                              2.41888432650478E-17
 [a.u.] -> [fs]                                             2.41888432650478E-02
 [a.u.] -> [J]                                              4.35974393937059E-18
 [a.u.] -> [N]                                              8.23872205491840E-08
 [a.u.] -> [K]                                              3.15774647902944E+05
 [a.u.] -> [kJ/mol]                                         2.62549961709828E+03
 [a.u.] -> [kcal/mol]                                       6.27509468713739E+02
 [a.u.] -> [Pa]                                             2.94210107994716E+13
 [a.u.] -> [bar]                                            2.94210107994716E+08
 [a.u.] -> [atm]                                            2.90362800883016E+08
 [a.u.] -> [eV]                                             2.72113838565563E+01
 [a.u.] -> [Hz]                                             6.57968392072181E+15
 [a.u.] -> [1/cm] (wave numbers)                            2.19474631370540E+05
 [a.u./Bohr**2] -> [1/cm]                                   5.14048714338585E+03
 

 CELL_TOP| Volume [angstrom^3]:                                     27000.000000
 CELL_TOP| Vector a [angstrom    30.000     0.000     0.000   |a| =    30.000000
 CELL_TOP| Vector b [angstrom     0.000    30.000     0.000   |b| =    30.000000
 CELL_TOP| Vector c [angstrom     0.000     0.000    30.000   |c| =    30.000000
 CELL_TOP| Angle (b,c), alpha [degree]:                                90.000000
 CELL_TOP| Angle (a,c), beta  [degree]:                                90.000000
 CELL_TOP| Angle (a,b), gamma [degree]:                                90.000000
 CELL_TOP| Numerically orthorhombic:                                         YES
 CELL_TOP| Periodicity                                                      NONE

 GENERATE|  Preliminary Number of Bonds generated:                             0
 GENERATE|  Achieved consistency in connectivity generation.

 CELL| Volume [angstrom^3]:                                         27000.000000
 CELL| Vector a [angstrom]:      30.000     0.000     0.000   |a| =    30.000000
 CELL| Vector b [angstrom]:       0.000    30.000     0.000   |b| =    30.000000
 CELL| Vector c [angstrom]:       0.000     0.000    30.000   |c| =    30.000000
 CELL| Angle (b,c), alpha [degree]:                                    90.000000
 CELL| Angle (a,c), beta  [degree]:                                    90.000000
 CELL| Angle (a,b), gamma [degree]:                                    90.000000
 CELL| Numerically orthorhombic:                                             YES
 CELL| Periodicity                                                          NONE

 CELL_REF| Volume [angstrom^3]:                                     27000.000000
 CELL_REF| Vector a [angstrom    30.000     0.000     0.000   |a| =    30.000000
 CELL_REF| Vector b [angstrom     0.000    30.000     0.000   |b| =    30.000000
 CELL_REF| Vector c [angstrom     0.000     0.000    30.000   |c| =    30.000000
 CELL_REF| Angle (b,c), alpha [degree]:                                90.000000
 CELL_REF| Angle (a,c), beta  [degree]:                                90.000000
 CELL_REF| Angle (a,b), gamma [degree]:                                90.000000
 CELL_REF| Numerically orthorhombic:                                         YES
 CELL_REF| Periodicity                                                      NONE

 *******************************************************************************
 *******************************************************************************
 **                                                                           **
 **     #####                         ##              ##                      **
 **    ##   ##            ##          ##              ##                      **
 **   ##     ##                       ##            ######                    **
 **   ##     ##  ##   ##  ##   #####  ##  ##   ####   ##    #####    #####    **
 **   ##     ##  ##   ##  ##  ##      ## ##   ##      ##   ##   ##  ##   ##   **
 **   ##  ## ##  ##   ##  ##  ##      ####     ###    ##   ######   ######    **
 **    ##  ###   ##   ##  ##  ##      ## ##      ##   ##   ##       ##        **
 **     #######   #####   ##   #####  ##  ##  ####    ##    #####   ##        **
 **           ##                                                    ##        **
 **                                                                           **
 **                                                ... make the atoms dance   **
 **                                                                           **
 **            Copyright (C) by CP2K developers group (2000-2025)             **
 **                      J. Chem. Phys. 152, 194103 (2020)                    **
 **                                                                           **
 *******************************************************************************

 DFT| Spin restricted Kohn-Sham (RKS) calculation                            RKS
 DFT| Multiplicity                                                             1
 DFT| Number of spin states                                                    1
 DFT| Charge                                                                   0
 DFT| Self-interaction correction (SIC)                                       NO
 DFT| Cutoffs: density                                              1.000000E-10
 DFT|          gradient                                             1.000000E-10
 DFT|          tau                                                  1.000000E-10
 DFT|          cutoff_smoothing_range                               0.000000E+00
 DFT| XC density smoothing                                                  NONE
 DFT| XC derivatives                                                          PW

 FUNCTIONAL| PBE:
 FUNCTIONAL| J.P.Perdew, K.Burke, M.Ernzerhof, Phys. Rev. Letter, vol. 77, n 18,
 FUNCTIONAL|  pp. 3865-3868, (1996)sx=0.750sc=1.000{spin unpolarized}           


 QS| Method:                                                                GAPW
 QS| Density plane wave grid type                        NON-SPHERICAL FULLSPACE
 QS| Number of grid levels:                                                    4
 QS| Density cutoff [a.u.]:                                                250.0
 QS| Multi grid cutoff [a.u.]: 1) grid level                               250.0
 QS|                           2) grid level                                83.3
 QS|                           3) grid level                                27.8
 QS|                           4) grid level                                 9.3
 QS| Grid level progression factor:                                          3.0
 QS| Relative density cutoff [a.u.]:                                        50.0
 QS| Interaction thresholds: eps_pgf_orb:                                1.0E-12
 QS|                         eps_filter_matrix:                          0.0E+00
 QS|                         eps_core_charge:                            1.0E-14
 QS|                         eps_rho_gspace:                             1.0E-12
 QS|                         eps_rho_rspace:                             1.0E-12
 QS|                         eps_gvg_rspace:                             1.0E-06
 QS|                         eps_ppl:                                    1.0E-02
 QS|                         eps_ppnl:                                   1.0E-08
 QS| GAPW|      One center basis from orbital basis primitives
 QS| GAPW|                   eps_fit:                                    1.0E-04
 QS| GAPW|                   eps_iso:                                    1.0E-12
 QS| GAPW|                   eps_svd:                                    1.0E-08
 QS| GAPW|                   eps_cpc:                                    1.0E-12
 QS| GAPW|   atom-r-grid: quadrature:                                     GC_LOG
 QS| GAPW|      atom-s-grid:  max l :                                          8
 QS| GAPW|      max_l_rho0 :                                                   2


 ATOMIC KIND INFORMATION

  1. Atomic kind: P                                     Number of atoms:       4

     Orbital Basis Set                                               aug-cc-pVQZ

       Number of orbital shell sets:                                          10
       Number of orbital shells:                                              22
       Number of primitive Cartesian functions:                               38
       Number of Cartesian basis functions:                                  109
       Number of spherical basis functions:                                   84
       Norm type:                                                              2

       Normalised Cartesian orbitals:

                        Set   Shell   Orbital            Exponent    Coefficient

                          1       1    1px               0.027200       0.015745
                          1       1    1py               0.027200       0.015745
                          1       1    1pz               0.027200       0.015745

                          2       1    1s                0.035400       0.058165

                          3       1    1dx2              0.059400       0.011763
                          3       1    1dxy              0.059400       0.020375
                          3       1    1dxz              0.059400       0.020375
                          3       1    1dy2              0.059400       0.011763
                          3       1    1dyz              0.059400       0.020375
                          3       1    1dz2              0.059400       0.011763

                          4       1    1px            1367.000000       4.988249
                                                       324.000000       7.073109
                                                       104.600000       9.022247
                                                        39.370000       9.918150
                                                        16.260000       8.757114
                                                         7.056000       5.552197
                                                         3.130000       2.266569
                                                         1.394000       0.421584
                                                         0.517900       0.012488
                                                         0.203200      -0.000263
                                                         0.076980       0.000030
                          4       1    1py            1367.000000       4.988249
                                                       324.000000       7.073109
                                                       104.600000       9.022247
                                                        39.370000       9.918150
                                                        16.260000       8.757114
                                                         7.056000       5.552197
                                                         3.130000       2.266569
                                                         1.394000       0.421584
                                                         0.517900       0.012488
                                                         0.203200      -0.000263
                                                         0.076980       0.000030
                          4       1    1pz            1367.000000       4.988249
                                                       324.000000       7.073109
                                                       104.600000       9.022247
                                                        39.370000       9.918150
                                                        16.260000       8.757114
                                                         7.056000       5.552197
                                                         3.130000       2.266569
                                                         1.394000       0.421584
                                                         0.517900       0.012488
                                                         0.203200      -0.000263
                                                         0.076980       0.000030

                          4       2    2px            1367.000000       0.000000
                                                       324.000000       0.000000
                                                       104.600000       0.000000
                                                        39.370000       0.000000
                                                        16.260000       0.000000
                                                         7.056000       0.000000
                                                         3.130000       0.000000
                                                         1.394000       0.000000
                                                         0.517900       0.626250
                                                         0.203200       0.000000
                                                         0.076980       0.000000
                          4       2    2py            1367.000000       0.000000
                                                       324.000000       0.000000
                                                       104.600000       0.000000
                                                        39.370000       0.000000
                                                        16.260000       0.000000
                                                         7.056000       0.000000
                                                         3.130000       0.000000
                                                         1.394000       0.000000
                                                         0.517900       0.626250
                                                         0.203200       0.000000
                                                         0.076980       0.000000
                          4       2    2pz            1367.000000       0.000000
                                                       324.000000       0.000000
                                                       104.600000       0.000000
                                                        39.370000       0.000000
                                                        16.260000       0.000000
                                                         7.056000       0.000000
                                                         3.130000       0.000000
                                                         1.394000       0.000000
                                                         0.517900       0.626250
                                                         0.203200       0.000000
                                                         0.076980       0.000000

                          4       3    3px            1367.000000       0.000000
                                                       324.000000       0.000000
                                                       104.600000       0.000000
                                                        39.370000       0.000000
                                                        16.260000       0.000000
                                                         7.056000       0.000000
                                                         3.130000       0.000000
                                                         1.394000       0.000000
                                                         0.517900       0.000000
                                                         0.203200       0.194466
                                                         0.076980       0.000000
                          4       3    3py            1367.000000       0.000000
                                                       324.000000       0.000000
                                                       104.600000       0.000000
                                                        39.370000       0.000000
                                                        16.260000       0.000000
                                                         7.056000       0.000000
                                                         3.130000       0.000000
                                                         1.394000       0.000000
                                                         0.517900       0.000000
                                                         0.203200       0.194466
                                                         0.076980       0.000000
                          4       3    3pz            1367.000000       0.000000
                                                       324.000000       0.000000
                                                       104.600000       0.000000
                                                        39.370000       0.000000
                                                        16.260000       0.000000
                                                         7.056000       0.000000
                                                         3.130000       0.000000
                                                         1.394000       0.000000
                                                         0.517900       0.000000
                                                         0.203200       0.194466
                                                         0.076980       0.000000

                          4       4    4px            1367.000000      -1.194614
                                                       324.000000      -1.674298
                                                       104.600000      -2.179621
                                                        39.370000      -2.394309
                                                        16.260000      -2.211672
                                                         7.056000      -1.397907
                                                         3.130000      -0.650852
                                                         1.394000      -0.034800
                                                         0.517900       0.202212
                                                         0.203200       0.106128
                                                         0.076980       0.015521
                          4       4    4py            1367.000000      -1.194614
                                                       324.000000      -1.674298
                                                       104.600000      -2.179621
                                                        39.370000      -2.394309
                                                        16.260000      -2.211672
                                                         7.056000      -1.397907
                                                         3.130000      -0.650852
                                                         1.394000      -0.034800
                                                         0.517900       0.202212
                                                         0.203200       0.106128
                                                         0.076980       0.015521
                          4       4    4pz            1367.000000      -1.194614
                                                       324.000000      -1.674298
                                                       104.600000      -2.179621
                                                        39.370000      -2.394309
                                                        16.260000      -2.211672
                                                         7.056000      -1.397907
                                                         3.130000      -0.650852
                                                         1.394000      -0.034800
                                                         0.517900       0.202212
                                                         0.203200       0.106128
                                                         0.076980       0.015521

                          4       5    5px            1367.000000       0.000000
                                                       324.000000       0.000000
                                                       104.600000       0.000000
                                                        39.370000       0.000000
                                                        16.260000       0.000000
                                                         7.056000       0.000000
                                                         3.130000       0.000000
                                                         1.394000       0.000000
                                                         0.517900       0.000000
                                                         0.203200       0.000000
                                                         0.076980       0.057798
                          4       5    5py            1367.000000       0.000000
                                                       324.000000       0.000000
                                                       104.600000       0.000000
                                                        39.370000       0.000000
                                                        16.260000       0.000000
                                                         7.056000       0.000000
                                                         3.130000       0.000000
                                                         1.394000       0.000000
                                                         0.517900       0.000000
                                                         0.203200       0.000000
                                                         0.076980       0.057798
                          4       5    5pz            1367.000000       0.000000
                                                       324.000000       0.000000
                                                       104.600000       0.000000
                                                        39.370000       0.000000
                                                        16.260000       0.000000
                                                         7.056000       0.000000
                                                         3.130000       0.000000
                                                         1.394000       0.000000
                                                         0.517900       0.000000
                                                         0.203200       0.000000
                                                         0.076980       0.057798

                          5       1    1s           615200.000000       0.387400
                                                     92120.000000       0.725316
                                                     20950.000000       1.255994
                                                      5920.000000       2.055156
                                                      1922.000000       3.189333
                                                       688.000000       4.652822
                                                       265.000000       6.088194
                                                       108.200000       6.563647
                                                        46.220000       4.869078
                                                        20.230000       1.739944
                                                         7.859000       0.130881
                                                         3.547000      -0.006779
                                                         1.564000       0.002075
                                                         0.488800      -0.000329
                                                         0.226600       0.000106
                                                         0.093310      -0.000015

                          5       2    2s           615200.000000      -0.105238
                                                     92120.000000      -0.196836
                                                     20950.000000      -0.341744
                                                      5920.000000      -0.559445
                                                      1922.000000      -0.877766
                                                       688.000000      -1.303180
                                                       265.000000      -1.802743
                                                       108.200000      -2.167789
                                                        46.220000      -2.104583
                                                        20.230000      -1.097582
                                                         7.859000       0.491027
                                                         3.547000       1.043868
                                                         1.564000       0.415081
                                                         0.488800       0.014326
                                                         0.226600      -0.001827
                                                         0.093310       0.000231

                          5       3    3s           615200.000000       0.000000
                                                     92120.000000       0.000000
                                                     20950.000000       0.000000
                                                      5920.000000       0.000000
                                                      1922.000000       0.000000
                                                       688.000000       0.000000
                                                       265.000000       0.000000
                                                       108.200000       0.000000
                                                        46.220000       0.000000
                                                        20.230000       0.000000
                                                         7.859000       0.000000
                                                         3.547000       0.000000
                                                         1.564000       0.000000
                                                         0.488800       0.416638
                                                         0.226600       0.000000
                                                         0.093310       0.000000

                          5       4    4s           615200.000000       0.000000
                                                     92120.000000       0.000000
                                                     20950.000000       0.000000
                                                      5920.000000       0.000000
                                                      1922.000000       0.000000
                                                       688.000000       0.000000
                                                       265.000000       0.000000
                                                       108.200000       0.000000
                                                        46.220000       0.000000
                                                        20.230000       0.000000
                                                         7.859000       0.000000
                                                         3.547000       0.000000
                                                         1.564000       0.000000
                                                         0.488800       0.000000
                                                         0.226600       0.234075
                                                         0.093310       0.000000

                          5       5    5s           615200.000000       0.028922
                                                     92120.000000       0.054034
                                                     20950.000000       0.093978
                                                      5920.000000       0.153540
                                                      1922.000000       0.241745
                                                       688.000000       0.358330
                                                       265.000000       0.500017
                                                       108.200000       0.604104
                                                        46.220000       0.605515
                                                        20.230000       0.324349
                                                         7.859000      -0.156067
                                                         3.547000      -0.432827
                                                         1.564000      -0.310326
                                                         0.488800       0.107121
                                                         0.226600       0.153004
                                                         0.093310       0.035401

                          5       6    6s           615200.000000       0.000000
                                                     92120.000000       0.000000
                                                     20950.000000       0.000000
                                                      5920.000000       0.000000
                                                      1922.000000       0.000000
                                                       688.000000       0.000000
                                                       265.000000       0.000000
                                                       108.200000       0.000000
                                                        46.220000       0.000000
                                                        20.230000       0.000000
                                                         7.859000       0.000000
                                                         3.547000       0.000000
                                                         1.564000       0.000000
                                                         0.488800       0.000000
                                                         0.226600       0.000000
                                                         0.093310       0.120325

                          6       1    1fx3              0.109000       0.010050
                          6       1    1fx2y             0.109000       0.022472
                          6       1    1fx2z             0.109000       0.022472
                          6       1    1fxy2             0.109000       0.022472
                          6       1    1fxyz             0.109000       0.038923
                          6       1    1fxz2             0.109000       0.022472
                          6       1    1fy3              0.109000       0.010050
                          6       1    1fy2z             0.109000       0.022472
                          6       1    1fyz2             0.109000       0.022472
                          6       1    1fz3              0.109000       0.010050

                          7       1    1dx2              1.036000       1.751012
                                                         0.413000       0.000000
                                                         0.165000       0.000000
                          7       1    1dxy              1.036000       3.032841
                                                         0.413000       0.000000
                                                         0.165000       0.000000
                          7       1    1dxz              1.036000       3.032841
                                                         0.413000       0.000000
                                                         0.165000       0.000000
                          7       1    1dy2              1.036000       1.751012
                                                         0.413000       0.000000
                                                         0.165000       0.000000
                          7       1    1dyz              1.036000       3.032841
                                                         0.413000       0.000000
                                                         0.165000       0.000000
                          7       1    1dz2              1.036000       1.751012
                                                         0.413000       0.000000
                                                         0.165000       0.000000

                          7       2    2dx2              1.036000       0.000000
                                                         0.413000       0.350205
                                                         0.165000       0.000000
                          7       2    2dxy              1.036000       0.000000
                                                         0.413000       0.606572
                                                         0.165000       0.000000
                          7       2    2dxz              1.036000       0.000000
                                                         0.413000       0.606572
                                                         0.165000       0.000000
                          7       2    2dy2              1.036000       0.000000
                                                         0.413000       0.350205
                                                         0.165000       0.000000
                          7       2    2dyz              1.036000       0.000000
                                                         0.413000       0.606572
                                                         0.165000       0.000000
                          7       2    2dz2              1.036000       0.000000
                                                         0.413000       0.350205
                                                         0.165000       0.000000

                          7       3    3dx2              1.036000       0.000000
                                                         0.413000       0.000000
                                                         0.165000       0.070308
                          7       3    3dxy              1.036000       0.000000
                                                         0.413000       0.000000
                                                         0.165000       0.121777
                          7       3    3dxz              1.036000       0.000000
                                                         0.413000       0.000000
                                                         0.165000       0.121777
                          7       3    3dy2              1.036000       0.000000
                                                         0.413000       0.000000
                                                         0.165000       0.070308
                          7       3    3dyz              1.036000       0.000000
                                                         0.413000       0.000000
                                                         0.165000       0.121777
                          7       3    3dz2              1.036000       0.000000
                                                         0.413000       0.000000
                                                         0.165000       0.070308

                          8       1    1gx4              0.250000       0.024591
                          8       1    1gx3y             0.250000       0.065061
                          8       1    1gx3z             0.250000       0.065061
                          8       1    1gx2y2            0.250000       0.083993
                          8       1    1gx2yz            0.250000       0.145480
                          8       1    1gx2z2            0.250000       0.083993
                          8       1    1gxy3             0.250000       0.065061
                          8       1    1gxy2z            0.250000       0.145480
                          8       1    1gxyz2            0.250000       0.145480
                          8       1    1gxz3             0.250000       0.065061
                          8       1    1gy4              0.250000       0.024591
                          8       1    1gy3z             0.250000       0.065061
                          8       1    1gy2z2            0.250000       0.083993
                          8       1    1gyz3             0.250000       0.065061
                          8       1    1gz4              0.250000       0.024591

                          9       1    1fx3              0.703000       0.666199
                                                         0.280000       0.000000
                          9       1    1fx2y             0.703000       1.489666
                                                         0.280000       0.000000
                          9       1    1fx2z             0.703000       1.489666
                                                         0.280000       0.000000
                          9       1    1fxy2             0.703000       1.489666
                                                         0.280000       0.000000
                          9       1    1fxyz             0.703000       2.580177
                                                         0.280000       0.000000
                          9       1    1fxz2             0.703000       1.489666
                                                         0.280000       0.000000
                          9       1    1fy3              0.703000       0.666199
                                                         0.280000       0.000000
                          9       1    1fy2z             0.703000       1.489666
                                                         0.280000       0.000000
                          9       1    1fyz2             0.703000       1.489666
                                                         0.280000       0.000000
                          9       1    1fz3              0.703000       0.666199
                                                         0.280000       0.000000

                          9       2    2fx3              0.703000       0.000000
                                                         0.280000       0.083958
                          9       2    2fx2y             0.703000       0.000000
                                                         0.280000       0.187735
                          9       2    2fx2z             0.703000       0.000000
                                                         0.280000       0.187735
                          9       2    2fxy2             0.703000       0.000000
                                                         0.280000       0.187735
                          9       2    2fxyz             0.703000       0.000000
                                                         0.280000       0.325166
                          9       2    2fxz2             0.703000       0.000000
                                                         0.280000       0.187735
                          9       2    2fy3              0.703000       0.000000
                                                         0.280000       0.083958
                          9       2    2fy2z             0.703000       0.000000
                                                         0.280000       0.187735
                          9       2    2fyz2             0.703000       0.000000
                                                         0.280000       0.187735
                          9       2    2fz3              0.703000       0.000000
                                                         0.280000       0.083958

                         10       1    1gx4              0.597000       0.269380
                         10       1    1gx3y             0.597000       0.712712
                         10       1    1gx3z             0.597000       0.712712
                         10       1    1gx2y2            0.597000       0.920107
                         10       1    1gx2yz            0.597000       1.593672
                         10       1    1gx2z2            0.597000       0.920107
                         10       1    1gxy3             0.597000       0.712712
                         10       1    1gxy2z            0.597000       1.593672
                         10       1    1gxyz2            0.597000       1.593672
                         10       1    1gxz3             0.597000       0.712712
                         10       1    1gy4              0.597000       0.269380
                         10       1    1gy3z             0.597000       0.712712
                         10       1    1gy2z2            0.597000       0.920107
                         10       1    1gyz3             0.597000       0.712712
                         10       1    1gz4              0.597000       0.269380

     RI Auxiliary Basis Set                                    aug-cc-pVQZ-OPTRI

       Number of orbital shell sets:                                          20
       Number of orbital shells:                                              20
       Number of primitive Cartesian functions:                               20
       Number of Cartesian basis functions:                                  125
       Number of spherical basis functions:                                   90
       Norm type:                                                              2

       Normalised Cartesian orbitals:

                        Set   Shell   Orbital            Exponent    Coefficient

                          1       1    1s                0.139846       0.162985

                          2       1    1fx3              0.184951       0.033024
                          2       1    1fx2y             0.184951       0.073844
                          2       1    1fx2z             0.184951       0.073844
                          2       1    1fxy2             0.184951       0.073844
                          2       1    1fxyz             0.184951       0.127902
                          2       1    1fxz2             0.184951       0.073844
                          2       1    1fy3              0.184951       0.033024
                          2       1    1fy2z             0.184951       0.073844
                          2       1    1fyz2             0.184951       0.073844
                          2       1    1fz3              0.184951       0.033024

                          3       1    1px               0.314784       0.336090
                          3       1    1py               0.314784       0.336090
                          3       1    1pz               0.314784       0.336090

                          4       1    1s                0.332865       0.312328

                          5       1    1gx4              0.398039       0.088355
                          5       1    1gx3y             0.398039       0.233765
                          5       1    1gx3z             0.398039       0.233765
                          5       1    1gx2y2            0.398039       0.301790
                          5       1    1gx2yz            0.398039       0.522715
                          5       1    1gx2z2            0.398039       0.301790
                          5       1    1gxy3             0.398039       0.233765
                          5       1    1gxy2z            0.398039       0.522715
                          5       1    1gxyz2            0.398039       0.522715
                          5       1    1gxz3             0.398039       0.233765
                          5       1    1gy4              0.398039       0.088355
                          5       1    1gy3z             0.398039       0.233765
                          5       1    1gy2z2            0.398039       0.301790
                          5       1    1gyz3             0.398039       0.233765
                          5       1    1gz4              0.398039       0.088355

                          6       1    1fx3              0.469842       0.269058
                          6       1    1fx2y             0.469842       0.601632
                          6       1    1fx2z             0.469842       0.601632
                          6       1    1fxy2             0.469842       0.601632
                          6       1    1fxyz             0.469842       1.042058
                          6       1    1fxz2             0.469842       0.601632
                          6       1    1fy3              0.469842       0.269058
                          6       1    1fy2z             0.469842       0.601632
                          6       1    1fyz2             0.469842       0.601632
                          6       1    1fz3              0.469842       0.269058

                          7       1    1dx2              0.542673       0.564744
                          7       1    1dxy              0.542673       0.978165
                          7       1    1dxz              0.542673       0.978165
                          7       1    1dy2              0.542673       0.564744
                          7       1    1dyz              0.542673       0.978165
                          7       1    1dz2              0.542673       0.564744

                          8       1    1hx5              0.707255       0.240695
                          8       1    1hx4y             0.707255       0.722084
                          8       1    1hx4z             0.707255       0.722084
                          8       1    1hx3y2            0.707255       1.103001
                          8       1    1hx3yz            0.707255       1.910454
                          8       1    1hx3z2            0.707255       1.103001
                          8       1    1hx2y3            0.707255       1.103001
                          8       1    1hx2y2z           0.707255       2.466385
                          8       1    1hx2yz2           0.707255       2.466385
                          8       1    1hx2z3            0.707255       1.103001
                          8       1    1hxy4             0.707255       0.722084
                          8       1    1hxy3z            0.707255       1.910454
                          8       1    1hxy2z2           0.707255       2.466385
                          8       1    1hxyz3            0.707255       1.910454
                          8       1    1hxz4             0.707255       0.722084
                          8       1    1hy5              0.707255       0.240695
                          8       1    1hy4z             0.707255       0.722084
                          8       1    1hy3z2            0.707255       1.103001
                          8       1    1hy2z3            0.707255       1.103001
                          8       1    1hyz4             0.707255       0.722084
                          8       1    1hz5              0.707255       0.240695

                          9       1    1s                0.746073       0.572132

                         10       1    1px               0.839480       1.145389
                         10       1    1py               0.839480       1.145389
                         10       1    1pz               0.839480       1.145389

                         11       1    1gx4              0.890917       0.810005
                         11       1    1gx3y             0.890917       2.143073
                         11       1    1gx3z             0.890917       2.143073
                         11       1    1gx2y2            0.890917       2.766695
                         11       1    1gx2yz            0.890917       4.792056
                         11       1    1gx2z2            0.890917       2.766695
                         11       1    1gxy3             0.890917       2.143073
                         11       1    1gxy2z            0.890917       4.792056
                         11       1    1gxyz2            0.890917       4.792056
                         11       1    1gxz3             0.890917       2.143073
                         11       1    1gy4              0.890917       0.810005
                         11       1    1gy3z             0.890917       2.143073
                         11       1    1gy2z2            0.890917       2.766695
                         11       1    1gyz3             0.890917       2.143073
                         11       1    1gz4              0.890917       0.810005

                         12       1    1px               1.503643       2.373400
                         12       1    1py               1.503643       2.373400
                         12       1    1pz               1.503643       2.373400

                         13       1    1dx2              1.525675       3.447212
                         13       1    1dxy              1.525675       5.970747
                         13       1    1dxz              1.525675       5.970747
                         13       1    1dy2              1.525675       3.447212
                         13       1    1dyz              1.525675       5.970747
                         13       1    1dz2              1.525675       3.447212

                         14       1    1s                1.709283       1.065419

                         15       1    1fx3              4.171852      36.617986
                         15       1    1fx2y             4.171852      81.880307
                         15       1    1fx2z             4.171852      81.880307
                         15       1    1fxy2             4.171852      81.880307
                         15       1    1fxyz             4.171852     141.820852
                         15       1    1fxz2             4.171852      81.880307
                         15       1    1fy3              4.171852      36.617986
                         15       1    1fy2z             4.171852      81.880307
                         15       1    1fyz2             4.171852      81.880307
                         15       1    1fz3              4.171852      36.617986

                         16       1    1dx2              5.928729      37.075947
                         16       1    1dxy              5.928729      64.217424
                         16       1    1dxz              5.928729      64.217424
                         16       1    1dy2              5.928729      37.075947
                         16       1    1dyz              5.928729      64.217424
                         16       1    1dz2              5.928729      37.075947

                         17       1    1px               6.900878      15.943018
                         17       1    1py               6.900878      15.943018
                         17       1    1pz               6.900878      15.943018

                         18       1    1s               10.633750       4.196864

                         19       1    1px              15.577185      44.111448
                         19       1    1py              15.577185      44.111448
                         19       1    1pz              15.577185      44.111448

                         20       1    1dx2             21.058151     340.717836
                         20       1    1dxy             21.058151     590.140602
                         20       1    1dxz             21.058151     590.140602
                         20       1    1dy2             21.058151     340.717836
                         20       1    1dyz             21.058151     590.140602
                         20       1    1dz2             21.058151     340.717836

       Atomic covalent radius [Angstrom]:                                  1.060

       Atomic van der Waals radius [Angstrom]:                             1.800

     The atoms of this atomic kind are PAW atoms (GAPW):
       Hard Gaussian function radius:                                      1.512
       Rho0 radius:                                                        1.512
       Maximum GTO radius used for PAW projector construction:            24.566

     GAPW Soft Basis Set                                        aug-cc-pVQZ_soft

       Number of orbital shell sets:                                          10
       Number of orbital shells:                                              22
       Number of primitive Cartesian functions:                               21
       Number of Cartesian basis functions:                                  109
       Number of spherical basis functions:                                   84
       Norm type:                                                              2

       Normalised Cartesian orbitals:

                        Set   Shell   Orbital            Exponent    Coefficient

                          1       1    1px               0.027200       0.015745
                          1       1    1py               0.027200       0.015745
                          1       1    1pz               0.027200       0.015745

                          2       1    1s                0.035400       0.058165

                          3       1    1dx2              0.059400       0.011763
                          3       1    1dxy              0.059400       0.020375
                          3       1    1dxz              0.059400       0.020375
                          3       1    1dy2              0.059400       0.011763
                          3       1    1dyz              0.059400       0.020375
                          3       1    1dz2              0.059400       0.011763

                          4       1    1px               3.130000       2.266569
                                                         1.394000       0.421584
                                                         0.517900       0.012488
                                                         0.203200      -0.000263
                                                         0.076980       0.000030
                          4       1    1py               3.130000       2.266569
                                                         1.394000       0.421584
                                                         0.517900       0.012488
                                                         0.203200      -0.000263
                                                         0.076980       0.000030
                          4       1    1pz               3.130000       2.266569
                                                         1.394000       0.421584
                                                         0.517900       0.012488
                                                         0.203200      -0.000263
                                                         0.076980       0.000030

                          4       2    2px               3.130000       0.000000
                                                         1.394000       0.000000
                                                         0.517900       0.626250
                                                         0.203200       0.000000
                                                         0.076980       0.000000
                          4       2    2py               3.130000       0.000000
                                                         1.394000       0.000000
                                                         0.517900       0.626250
                                                         0.203200       0.000000
                                                         0.076980       0.000000
                          4       2    2pz               3.130000       0.000000
                                                         1.394000       0.000000
                                                         0.517900       0.626250
                                                         0.203200       0.000000
                                                         0.076980       0.000000

                          4       3    3px               3.130000       0.000000
                                                         1.394000       0.000000
                                                         0.517900       0.000000
                                                         0.203200       0.194466
                                                         0.076980       0.000000
                          4       3    3py               3.130000       0.000000
                                                         1.394000       0.000000
                                                         0.517900       0.000000
                                                         0.203200       0.194466
                                                         0.076980       0.000000
                          4       3    3pz               3.130000       0.000000
                                                         1.394000       0.000000
                                                         0.517900       0.000000
                                                         0.203200       0.194466
                                                         0.076980       0.000000

                          4       4    4px               3.130000      -0.650852
                                                         1.394000      -0.034800
                                                         0.517900       0.202212
                                                         0.203200       0.106128
                                                         0.076980       0.015521
                          4       4    4py               3.130000      -0.650852
                                                         1.394000      -0.034800
                                                         0.517900       0.202212
                                                         0.203200       0.106128
                                                         0.076980       0.015521
                          4       4    4pz               3.130000      -0.650852
                                                         1.394000      -0.034800
                                                         0.517900       0.202212
                                                         0.203200       0.106128
                                                         0.076980       0.015521

                          4       5    5px               3.130000       0.000000
                                                         1.394000       0.000000
                                                         0.517900       0.000000
                                                         0.203200       0.000000
                                                         0.076980       0.057798
                          4       5    5py               3.130000       0.000000
                                                         1.394000       0.000000
                                                         0.517900       0.000000
                                                         0.203200       0.000000
                                                         0.076980       0.057798
                          4       5    5pz               3.130000       0.000000
                                                         1.394000       0.000000
                                                         0.517900       0.000000
                                                         0.203200       0.000000
                                                         0.076980       0.057798

                          5       1    1s                3.547000      -0.006779
                                                         1.564000       0.002075
                                                         0.488800      -0.000329
                                                         0.226600       0.000106
                                                         0.093310      -0.000015

                          5       2    2s                3.547000       1.043868
                                                         1.564000       0.415081
                                                         0.488800       0.014326
                                                         0.226600      -0.001827
                                                         0.093310       0.000231

                          5       3    3s                3.547000       0.000000
                                                         1.564000       0.000000
                                                         0.488800       0.416638
                                                         0.226600       0.000000
                                                         0.093310       0.000000

                          5       4    4s                3.547000       0.000000
                                                         1.564000       0.000000
                                                         0.488800       0.000000
                                                         0.226600       0.234075
                                                         0.093310       0.000000

                          5       5    5s                3.547000      -0.432827
                                                         1.564000      -0.310326
                                                         0.488800       0.107121
                                                         0.226600       0.153004
                                                         0.093310       0.035401

                          5       6    6s                3.547000       0.000000
                                                         1.564000       0.000000
                                                         0.488800       0.000000
                                                         0.226600       0.000000
                                                         0.093310       0.120325

                          6       1    1fx3              0.109000       0.010050
                          6       1    1fx2y             0.109000       0.022472
                          6       1    1fx2z             0.109000       0.022472
                          6       1    1fxy2             0.109000       0.022472
                          6       1    1fxyz             0.109000       0.038923
                          6       1    1fxz2             0.109000       0.022472
                          6       1    1fy3              0.109000       0.010050
                          6       1    1fy2z             0.109000       0.022472
                          6       1    1fyz2             0.109000       0.022472
                          6       1    1fz3              0.109000       0.010050

                          7       1    1dx2              1.036000       1.751012
                                                         0.413000       0.000000
                                                         0.165000       0.000000
                          7       1    1dxy              1.036000       3.032841
                                                         0.413000       0.000000
                                                         0.165000       0.000000
                          7       1    1dxz              1.036000       3.032841
                                                         0.413000       0.000000
                                                         0.165000       0.000000
                          7       1    1dy2              1.036000       1.751012
                                                         0.413000       0.000000
                                                         0.165000       0.000000
                          7       1    1dyz              1.036000       3.032841
                                                         0.413000       0.000000
                                                         0.165000       0.000000
                          7       1    1dz2              1.036000       1.751012
                                                         0.413000       0.000000
                                                         0.165000       0.000000

                          7       2    2dx2              1.036000       0.000000
                                                         0.413000       0.350205
                                                         0.165000       0.000000
                          7       2    2dxy              1.036000       0.000000
                                                         0.413000       0.606572
                                                         0.165000       0.000000
                          7       2    2dxz              1.036000       0.000000
                                                         0.413000       0.606572
                                                         0.165000       0.000000
                          7       2    2dy2              1.036000       0.000000
                                                         0.413000       0.350205
                                                         0.165000       0.000000
                          7       2    2dyz              1.036000       0.000000
                                                         0.413000       0.606572
                                                         0.165000       0.000000
                          7       2    2dz2              1.036000       0.000000
                                                         0.413000       0.350205
                                                         0.165000       0.000000

                          7       3    3dx2              1.036000       0.000000
                                                         0.413000       0.000000
                                                         0.165000       0.070308
                          7       3    3dxy              1.036000       0.000000
                                                         0.413000       0.000000
                                                         0.165000       0.121777
                          7       3    3dxz              1.036000       0.000000
                                                         0.413000       0.000000
                                                         0.165000       0.121777
                          7       3    3dy2              1.036000       0.000000
                                                         0.413000       0.000000
                                                         0.165000       0.070308
                          7       3    3dyz              1.036000       0.000000
                                                         0.413000       0.000000
                                                         0.165000       0.121777
                          7       3    3dz2              1.036000       0.000000
                                                         0.413000       0.000000
                                                         0.165000       0.070308

                          8       1    1gx4              0.250000       0.024591
                          8       1    1gx3y             0.250000       0.065061
                          8       1    1gx3z             0.250000       0.065061
                          8       1    1gx2y2            0.250000       0.083993
                          8       1    1gx2yz            0.250000       0.145480
                          8       1    1gx2z2            0.250000       0.083993
                          8       1    1gxy3             0.250000       0.065061
                          8       1    1gxy2z            0.250000       0.145480
                          8       1    1gxyz2            0.250000       0.145480
                          8       1    1gxz3             0.250000       0.065061
                          8       1    1gy4              0.250000       0.024591
                          8       1    1gy3z             0.250000       0.065061
                          8       1    1gy2z2            0.250000       0.083993
                          8       1    1gyz3             0.250000       0.065061
                          8       1    1gz4              0.250000       0.024591

                          9       1    1fx3              0.703000       0.666199
                                                         0.280000       0.000000
                          9       1    1fx2y             0.703000       1.489666
                                                         0.280000       0.000000
                          9       1    1fx2z             0.703000       1.489666
                                                         0.280000       0.000000
                          9       1    1fxy2             0.703000       1.489666
                                                         0.280000       0.000000
                          9       1    1fxyz             0.703000       2.580177
                                                         0.280000       0.000000
                          9       1    1fxz2             0.703000       1.489666
                                                         0.280000       0.000000
                          9       1    1fy3              0.703000       0.666199
                                                         0.280000       0.000000
                          9       1    1fy2z             0.703000       1.489666
                                                         0.280000       0.000000
                          9       1    1fyz2             0.703000       1.489666
                                                         0.280000       0.000000
                          9       1    1fz3              0.703000       0.666199
                                                         0.280000       0.000000

                          9       2    2fx3              0.703000       0.000000
                                                         0.280000       0.083958
                          9       2    2fx2y             0.703000       0.000000
                                                         0.280000       0.187735
                          9       2    2fx2z             0.703000       0.000000
                                                         0.280000       0.187735
                          9       2    2fxy2             0.703000       0.000000
                                                         0.280000       0.187735
                          9       2    2fxyz             0.703000       0.000000
                                                         0.280000       0.325166
                          9       2    2fxz2             0.703000       0.000000
                                                         0.280000       0.187735
                          9       2    2fy3              0.703000       0.000000
                                                         0.280000       0.083958
                          9       2    2fy2z             0.703000       0.000000
                                                         0.280000       0.187735
                          9       2    2fyz2             0.703000       0.000000
                                                         0.280000       0.187735
                          9       2    2fz3              0.703000       0.000000
                                                         0.280000       0.083958

                         10       1    1gx4              0.597000       0.269380
                         10       1    1gx3y             0.597000       0.712712
[...]
 CHIMIA 59, 499-503 (2005).
 Ground and excited state density functional calculations with the Gaussian and 
 augmented-plane-wave method.
 https://doi.org/10.2533/000942905777676164

 M. Frigo, S. G. Johnson.
 Proc. IEEE 93, 216-231 (2005).
 The design and implementation of FFTW3.
 https://doi.org/10.1109/JPROC.2004.840301

 R. L. Martin.
 J. Chem. Phys. 118, 4775-4777 (2003).
 Natural transition orbitals.
 https://doi.org/10.1063/1.1558471

 M. Krack, M. Parrinello.
 Phys. Chem. Chem. Phys. 2, 2105-2112 (2000).
 All-electron ab-initio molecular dynamics.
 https://doi.org/10.1039/b001167n

 G. Lippert, J. Hutter, M. Parrinello.
 Theor. Chem. Acc. 103, 124-140 (1999).
 The Gaussian and augmented-plane-wave density functional method for ab initio 
 molecular dynamics simulations.
 https://doi.org/10.1007/s002140050523

 J. P. Perdew, K. Burke, M. Ernzerhof.
 Phys. Rev. Lett. 77, 3865-3868 (1996).
 Generalized gradient approximation made simple.
 https://doi.org/10.1103/PhysRevLett.77.3865


 -------------------------------------------------------------------------------
 -                                                                             -
 -                                T I M I N G                                  -
 -                                                                             -
 -------------------------------------------------------------------------------
 SUBROUTINE                       CALLS  ASD         SELF TIME        TOTAL TIME
                                MAXIMUM       AVERAGE  MAXIMUM  AVERAGE  MAXIMUM
 CP2K                                 1  1.0    0.025    0.037  594.474  594.474
 qs_energies                          1  2.0    0.000    0.001  593.699  593.700
 qs_energies_properties               1  3.0    0.000    0.000  366.070  366.070
 tddfpt                               1  4.0    0.000    0.000  366.070  366.070
 tddfpt_energies                      1  5.0    0.000    0.001  366.031  366.031
 tddfpt_davidson_solver               1  6.0    0.001    0.003  363.680  363.680
 tddfpt_compute_Aop_evects            8  7.0    0.000    0.000  361.689  361.689
 fhxc_kernel                          8  8.0    0.008    0.010  263.848  263.848
 scf_env_do_scf                       1  3.0    0.000    0.000  226.279  226.284
 scf_env_do_scf_inner_loop           58  4.0    0.002    0.004  226.279  226.284
 integrate_four_center              378  9.8    8.109   16.743  211.302  211.434
 qs_ks_update_qs_env                 58  5.0    0.000    0.000  197.609  197.661
 rebuild_ks_matrix                   58  6.0    0.000    0.000  197.599  197.652
 qs_ks_build_kohn_sham_matrix        58  7.0    0.009    0.010  197.599  197.652
 mp_sync                           2005 11.5  163.026  195.350  163.026  195.350
 integrate_four_center_main         378 10.8    0.541   21.171   24.486  180.588
 integrate_four_center_bin        32473 11.8   23.945  179.516   23.945  179.516
 fft_wrap_pw1pw2                   4432 11.1    0.090    0.134  146.274  150.241
 fft_wrap_pw1pw2_250               3118 12.2    5.370    6.675  141.016  144.200
 fft3d_ps                          4432 13.1   48.146   60.466  123.009  127.119
 hfx_ks_matrix                       58  8.0    0.002    0.002  116.688  116.749
 pw_poisson_solve                   218  9.5    2.633    3.447  112.654  113.423
 tddfpt_apply_coulomb               160  9.0    0.004    0.005  103.700  104.642
 tddfpt_apply_hfx                     8  8.0    0.003    0.004   96.968   96.968
 tddft_hfx_matrix                   320  9.0    0.008    0.011   94.625   94.736
 mp_alltoall_z22v                  4432 15.1   65.419   70.672   65.419   70.672
 ps_wavelet_solve                   218 10.5   48.797   56.014   62.474   63.444
 xc_pw_derive                      1311 11.0    0.015    0.018   59.569   60.330
 qs_rho_update_rho_low              220  7.9    0.002    0.003   59.873   59.889
 calculate_rho_elec                 220  8.9    1.070    1.269   58.587   58.593
 tddfpt_apply_xc_analytic           160  9.0    0.227    0.305   54.094   54.793
 integrate_v_rspace                 218  9.0    0.005    0.006   47.932   48.245
 mp_alltoall_d54                    218 11.5    7.976   47.979    7.976   47.979
 x_to_yz                           2024 13.8    5.544    6.472   41.070   43.153
 density_rs2pw                      220  9.9    0.014    0.016   39.869   42.372
 xc_pw_divergence                   218 10.7    0.009    0.011   40.424   41.192
 yz_to_x                           1970 14.5    3.390    4.035   33.250   36.377
 prepare_gapw_den                   219  8.7    0.003    0.004   32.838   33.060
 xc_calc_2nd_deriv_analytical       480 10.1    1.906    1.991   32.099   32.203
 potential_pw2rs                    218 10.0    0.075    0.083   31.719   32.007
 mp_alltoall_d11v                 14128 11.6   24.571   31.601   24.571   31.601
 transfer_rs2pw                    1100 10.9    0.030    0.041   25.111   27.187
 transfer_pw2rs                    1091 10.9    0.017    0.020   25.405   25.787
 mp_waitany                       39450 12.8   19.911   23.436   19.911   23.436
 grid_collocate_task_list           220  9.9   16.561   22.320   16.561   22.320
 qs_vxc_create                       58  8.0    0.001    0.001   21.677   21.679
 xc_vxc_pw_create                    58  9.0    0.353    0.424   21.677   21.678
 transfer_rs2pw_250                 440 11.8    5.314    5.873   15.326   18.442
 put_rho0_on_grid                   219  9.7    1.083    1.314   18.087   18.309
 rs_gather_matrices                 218 10.0    0.023    0.060   14.169   16.256
 grid_integrate_task_list           218 10.0    2.038   15.823    2.038   15.823
 gaVxcgb_GC                         218  9.7    0.641   15.435    0.641   15.435
 transfer_pw2rs_250                 437 11.7    5.164    5.900   14.278   14.985
 integrate_vhg0_rspace              218  9.5    1.370    1.539   13.633   13.944
 mp_waitall_1                    251554 13.4   10.619   13.029   10.619   13.029
 calculate_xc_2nd_deriv_atom        160  9.0    0.076    1.451    0.566   12.993
 sum_up_and_integrate                58  8.0    0.001    0.001   12.238   12.280
 calculate_rho_atom                 219  9.7    3.189   11.709    3.189   11.709
 xc_rho_set_and_dset_create          59 10.0    0.262    0.311   10.111   11.122
 gspace_mixing                       57  5.0    0.277    0.329   10.193   10.196
 mp_sum_d                          5806  7.5    8.526    9.748    8.526    9.748
 mp_alltoall_d45                    219 11.5    5.248    9.248    5.248    9.248
 mp_sum_dv                        20764  8.9    8.239    8.847    8.239    8.847
 broyden_mixing                      57  6.0    7.351    7.518    7.501    7.594
 pw_scatter_p                      2242 12.8    7.300    7.499    7.300    7.499
 pw_gather_p                       2190 13.4    6.545    7.246    6.545    7.246
 transfer_rs2pw_90                  220 11.9    0.846    1.004    3.934    6.730
 transfer_pw2rs_30                  218 12.0    3.715    4.274    6.218    6.615
 calc_screening_functions             1 10.0    5.412    5.739    6.149    6.466
 pw_derive                         1965 11.8    5.790    6.156    5.790    6.156
 cp_dbcsr_sm_fm_multiply           1006  8.6    0.020    0.022    5.413    5.536
 cp2k_distribution_to_z_slices      218 10.5    2.097    2.266    4.990    5.304
 mp_isendrecv_dv                 113240 12.3    2.103    5.209    2.103    5.209
 fft_wrap_pw1pw2_90                 438 12.0    0.148    0.228    3.970    5.087
 transfer_rs2pw_30                  220 11.9    2.073    2.171    4.825    4.890
 mp_sum_dm                         2719 10.0    4.436    4.871    4.436    4.871
 integrate_four_center_getP         378 10.8    0.100    0.117    4.574    4.605
 integrate_four_center_dist_KS      378 10.8    0.107    0.123    4.449    4.475
 calculate_vxc_atom                  58  8.0    0.017    0.256    4.388    4.389
 transfer_pw2rs_90                  218 12.0    0.914    1.064    3.803    4.380
 rs_grid_zero                      1093 11.9    3.865    4.150    3.865    4.150
 calculate_rho0_atom                219  9.7    3.703    3.943    3.703    3.943
 pw_copy                           2955 11.0    3.349    3.584    3.349    3.584
 mp_sendrecv_dv                   41800 12.9    3.365    3.465    3.365    3.465
 pw_poisson_set                     219 10.4    0.007    0.008    3.369    3.424
 dbcsr_complete_redistribute       3331 10.5    0.126    0.247    3.046    3.168
 cp_fm_syevd                        108  7.2    0.001    0.001    3.076    3.082
 dbcsr_multiply_generic            1384 10.3    0.059    0.065    2.639    3.058
 cp_fm_redistribute_end             108  8.2    1.517    2.949    1.524    2.954
 cp_fm_syevd_base                   108  8.2    1.423    2.856    1.423    2.856
 pw_copy_to_array                  2190 13.4    2.312    2.849    2.312    2.849
 xc_functional_eval                 495 10.9    0.001    0.003    1.924    2.763
 pbe_lda_eval                       495 11.9    1.924    2.762    1.924    2.762
 qs_scf_new_mos                      58  5.0    0.001    0.002    2.665    2.684
 copy_dbcsr_to_fm                  1086  9.3    0.014    0.015    2.322    2.541
 pw_axpy                           2348 10.8    2.276    2.520    2.276    2.520
 cp_dbcsr_sm_fm_multiply_core      1006  9.6    0.003    0.003    1.841    2.242
 pw_integral_ab_c1d_c1d_gs          218 10.5    1.596    1.611    1.932    2.198
 copy_fm_to_dbcsr                  2243  9.6    0.010    0.011    2.045    2.163
 Vh_1c_gg_integrals                 218  9.5    0.084    1.563    1.951    2.139
 eigensolver_symm                    58  6.0    0.002    0.002    2.109    2.113
 multiply_cannon                   1384 11.3    0.132    0.146    1.480    1.917
 pw_copy_from_array                2242 12.8    1.465    1.832    1.465    1.832
 pw_zero                           2434 10.6    1.627    1.762    1.627    1.762
 mp_isend_dv                      93840 13.8    0.968    1.566    0.968    1.566
 tddfpt_print_nto_analysis            1  6.0    0.002    0.003    1.546    1.547
 multiply_cannon_loop              1384 12.3    0.214    0.222    1.022    1.439
 mp_alltoall_i22                   4418 11.4    1.096    1.424    1.096    1.424
 mp_isend_dm3                      7890 12.8    0.658    1.404    0.658    1.404
 dbcsr_desymmetrize_deep           1087 10.3    0.020    0.032    1.180    1.396
 powell_optimize                 495996 11.0    1.229    1.375    1.229    1.375
 mp_irecv_dm3                      7890 12.8    0.710    1.355    0.710    1.355
 calculate_rho_atom_coeff           220  8.9    0.107    0.306    1.284    1.299
 transfer_pw2rs_10                  218 12.0    0.401    0.449    1.089    1.243
 tddfpt_orthonormalize_psi1_psi       9  6.9    0.019    0.020    1.211    1.211
 cp_dbcsr_plus_fm_fm_t              218  8.5    0.003    0.004    1.179    1.209
 mp_alltoall_i11v                 11080 11.5    1.143    1.146    1.143    1.146
 cp_fm_geeig                         20  7.0    0.001    0.001    1.060    1.061
 transfer_rs2pw_10                  220 11.9    0.383    0.415    0.997    1.025
 fft_wrap_pw1pw2_30                 438 12.0    0.027    0.031    0.862    0.992
 mp_max_i                           671  4.9    0.701    0.909    0.701    0.909
 make_m2s                          2768 11.3    0.044    0.051    0.728    0.874
 tddfpt_apply_energy_diff             8  8.0    0.001    0.001    0.873    0.873
 calc_pair_dist_radii                 1 10.0    0.249    0.266    0.741    0.830
 qs_energies_init_hamiltonians        1  3.0    0.000    0.000    0.816    0.816
 build_core_hamiltonian_matrix        1  4.0    0.000    0.000    0.807    0.807
 overlap_condnum                      1  5.0    0.000    0.000    0.800    0.805
 pw_poisson_rebuild                 218 10.5    0.000    0.000    0.777    0.791
 ps_wavelet_create                    1 10.0    0.000    0.000    0.777    0.790
 RS_z_slice_distribution              1 11.0    0.677    0.730    0.777    0.790
 multiply_cannon_metrocomm3       33216 13.3    0.053    0.054    0.257    0.752
 update_ks_atom                     218  8.7    0.067    0.287    0.541    0.738
 make_images                       2768 12.3    0.115    0.157    0.597    0.727
 mp_sum_l                          5340 10.5    0.553    0.724    0.553    0.724
 arnoldi_conjugate_gradient           5  6.0    0.016    0.020    0.723    0.724
 tddfpt_compute_residual_vects        7  7.0    0.001    0.001    0.690    0.691
 prepare_dr1dr                      480 11.1    0.574    0.679    0.574    0.679
 offload_free_buffer                226 10.2    0.333    0.670    0.333    0.670
 scale_and_distribute               436 11.5    0.553    0.623    0.553    0.623
 parallel_gemm_fm                  1478  8.3    0.002    0.002    0.543    0.569
 parallel_gemm_fm_gemm             1478  9.3    0.002    0.002    0.541    0.567
 cp_fm_gemm                        1478 10.3    0.539    0.565    0.539    0.565
 mp_bcast_dm                       1744  9.7    0.474    0.539    0.474    0.539
 multiply_cannon_metrocomm1       33216 13.3    0.037    0.038    0.162    0.480
 integrate_four_center_load         378 10.8    0.001    0.002    0.325    0.480
 hfx_load_balance                     1 11.0    0.000    0.000    0.324    0.479
 hybrid_alltoall_any               3855 13.5    0.029    0.080    0.380    0.474
 dbcsr_sym_matrix_vector_mult      2390  7.0    0.037    0.041    0.334    0.473
 hfx_load_balance_range               1 12.0    0.000    0.002    0.314    0.469
 init_scf_run                         1  3.0    0.000    0.000    0.452    0.453
 tddfpt_construct_ground_state_       1  6.0    0.000    0.000    0.422    0.423
 scf_env_initial_rho_setup            1  4.0    0.000    0.000    0.411    0.412
 create_qs_kind_set                   1  2.0    0.000    0.000    0.411    0.412
 read_qs_kind                         1  3.0    0.219    0.226    0.411    0.412
 calculate_dm_sparse                 58  6.0    0.000    0.001    0.375    0.396
 fft_wrap_pw1pw2_10                 438 12.0    0.007    0.007    0.335    0.360
 dbcsr_finalize                   10346 11.4    0.037    0.079    0.177    0.338
 cp_fm_trace_a1b1t1_aa            13090  8.0    0.064    0.069    0.315    0.319
 qs_init_subsys                       1  2.0    0.009    0.010    0.292    0.293
 make_images_sizes                 2768 13.3    0.003    0.003    0.273    0.291
 mp_alltoall_i44                   2768 14.3    0.270    0.288    0.270    0.288
 rs_scatter_matrices                220  9.9    0.002    0.013    0.270    0.281
 mp_rank_compare                   4432 14.1    0.261    0.276    0.261    0.276
 qs_env_setup                         1  3.0    0.000    0.000    0.258    0.263
 qs_env_rebuild_pw_env                2  3.5    0.000    0.000    0.257    0.262
 pw_env_rebuild                       1  5.0    0.001    0.001    0.257    0.261
 mp_allgather_i34                  1384 12.3    0.236    0.261    0.236    0.261
 create_kernel_env                    1  6.0    0.000    0.000    0.213    0.247
 xc_prep_2nd_deriv                    1  7.0    0.000    0.000    0.212    0.247
 pw_scale                           552  9.5    0.207    0.245    0.207    0.245
 pw_grid_setup                        4  6.0    0.000    0.000    0.226    0.230
 pw_grid_setup_internal               4  7.0    0.006    0.008    0.226    0.230
 mp_alltoall_z11v                   438 15.0    0.200    0.223    0.200    0.223
 multiply_cannon_metrocomm4       30448 13.3    0.090    0.095    0.174    0.221
 dbcsr_add_d                       3628  7.0    0.003    0.004    0.030    0.220
 multiply_cannon_multrec          33216 13.3    0.050    0.210    0.056    0.219
 mp_cart_sub                       2175 11.3    0.215    0.217    0.215    0.217
 dbcsr_add_anytype                 3628  8.0    0.004    0.028    0.027    0.216
 mp_irecv_dv                      93522 13.8    0.120    0.207    0.120    0.207
 dbcsr_merge_all                   8634 12.4    0.079    0.132    0.101    0.196
 parser_read_line                 46156  4.0    0.016    0.017    0.192    0.195
 multiply_cannon_metrocomm2       29064 13.3    0.087    0.091    0.159    0.192
 dbcsr_rep_row_to_rep_col_vec      2390  8.0    0.012    0.017    0.070    0.192
 make_images_data                  2768 13.3    0.028    0.041    0.071    0.191
 dbcsr_create_new                 38166 11.3    0.123    0.143    0.160    0.179
 parser_read_line_low                51  5.0    0.016    0.081    0.176    0.179
 broadcast_input_information         51  6.0    0.039    0.043    0.159    0.163
 pw_grid_sort                         4  8.0    0.107    0.109    0.156    0.159
 dbcsr_col_vec_to_rep_row          2390  8.0    0.017    0.023    0.081    0.157
 mp_cart_create                    1309 11.0    0.147    0.155    0.148    0.157
 xc_2nd_deriv_of_r                  320 10.0    0.001    0.026    0.006    0.147
 yz_to_xz                           218 14.0    0.012    0.013    0.126    0.146
 cp_fm_redistribute_start           108  8.2    0.098    0.102    0.128    0.140
 dbcsr_special_finalize            6920 13.3    0.027    0.029    0.077    0.125
 rs_grid_create                     224 10.4    0.001    0.002    0.013    0.124
 offload_create_buffer              226 11.3    0.011    0.123    0.011    0.123
 tddfpt_orthogonalize_psi1_psi0       9  6.9    0.000    0.000    0.090    0.109
 mp_bcast_dv                       2498  9.0    0.039    0.109    0.039    0.109
 cp_fm_triangular_multiply           60  8.0    0.105    0.106    0.105    0.106
 dbcsr_iterator_start             51234 10.4    0.064    0.085    0.077    0.105
 tddfpt_compute_ritz_vects            8  7.0    0.006    0.006    0.102    0.102
 xz_to_yz                           220 13.9    0.008    0.009    0.095    0.100
 dbcsr_copy                       13024  8.4    0.043    0.051    0.083    0.098
 dbcsr_sym_matrix_vector_mult_l    2390  8.0    0.013    0.090    0.020    0.097
 dbcsr_merge_single_wm             6920 14.3    0.034    0.045    0.041    0.086
 mixing_init                          1  5.0    0.077    0.082    0.082    0.083
 scf_post_calculation_gpw             1  3.0    0.000    0.000    0.082    0.082
 write_available_results              1  4.0    0.000    0.000    0.082    0.082
 write_mo_free_results                1  5.0    0.006    0.008    0.081    0.082
 mp_bcast_i_src                     204  7.0    0.071    0.080    0.071    0.080
 cp_fm_cholesky_decompose            20  8.0    0.079    0.079    0.079    0.079
 cp_fm_symm                          58  7.0    0.074    0.078    0.074    0.078
 copy_fm_to_dbcsr_bc               2243 10.6    0.024    0.026    0.071    0.077
 dbcsr_work_create                16641 12.5    0.031    0.045    0.047    0.072
 cp_fm_triangular_invert             20  8.0    0.071    0.072    0.071    0.072
 dbcsr_iterator_stop              51234 10.4    0.045    0.059    0.055    0.071
 dbcsr_destroy                    33332 10.8    0.042    0.044    0.063    0.069
 dbcsr_data_release              184245 12.3    0.050    0.066    0.050    0.066
 dbcsr_data_new                  113933 12.6    0.049    0.063    0.049    0.063
 -------------------------------------------------------------------------------

 The number of warnings for this run is : 1
 
 -------------------------------------------------------------------------------
  **** **** ******  **  PROGRAM ENDED AT                 2025-04-12 02:56:45.816
 ***** ** ***  *** **   PROGRAM RAN ON                              i03r05c05s01
 **    ****   ******    PROGRAM RAN BY                                   di38fab
 ***** **    ** ** **   PROGRAM PROCESS ID                               1851314
  **** **  *******  **  PROGRAM STOPPED IN /hppfs/scratch/04/di38fab/05_MOL/W4-1
                                           1+ALK/p4/aug-cc-pVQZ/TDDFT
