 DBCSR| CPU Multiplication driver                                           BLAS (U)
 DBCSR| Multrec recursion limit                                              512 (U)
 DBCSR| Multiplication stack size                                           1000 (D)
 DBCSR| Maximum elements for images                                    UNLIMITED (U)
 DBCSR| Multiplicative factor virtual images                                   1 (U)
 DBCSR| Use multiplication densification                                       T (D)
 DBCSR| Multiplication size stacks                                             3 (U)
 DBCSR| Use memory pool for CPU allocation                                     F (U)
 DBCSR| Number of 3D layers                                               SINGLE (U)
 DBCSR| Use MPI memory allocation                                              F (U)
 DBCSR| Use RMA algorithm                                                      F (U)
 DBCSR| Use Communication thread                                               T (U)
 DBCSR| Communication thread load                                             75 (D)
 DBCSR| MPI: My process id                                                     0
 DBCSR| MPI: Number of processes                                             216
 DBCSR| OMP: Current number of threads                                         4
 DBCSR| OMP: Max number of threads                                             4
 DBCSR| Split modifier for TAS multiplication algorithm                  1.0E+00 (U)


  **** **** ******  **  PROGRAM STARTED AT               2025-03-30 20:23:59.315
 ***** ** ***  *** **   PROGRAM STARTED ON                          i04r04c05s05
 **    ****   ******    PROGRAM STARTED BY                               di38fab
 ***** **    ** ** **   PROGRAM PROCESS ID                               2214456
  **** **  *******  **  PROGRAM STARTED IN /hppfs/scratch/04/di38fab/07_MOL_non_
                                           aug/05_MOL_non_aug/05_MOL/aUKBqsEOTmq
                                           69kFe5R_nOg/5k_set_final_qzvp/GAQCAE/
                                           cc-pVTZ/GW+BSE

 CP2K| version string:                 CP2K version 2025.1 (Development Version)
 CP2K| source code revision number:                                  git:d2e611a
 CP2K| cp2kflags: omp libint fftw3 libxc parallel scalapack max_contr=4         
 CP2K| is freely available from                            https://www.cp2k.org/
 CP2K| Program compiled at                       Thu 06 Mar 2025 05:09:20 PM CET
 CP2K| Program compiled on                                               login02
 CP2K| Program compiled for                                        Supermuc-foss
 CP2K| Data directory path                  /hppfs/work/pn36zo/di38fab/cp2k/data
 CP2K| Input file name                                                    GW.inp

 GLOBAL| Force Environment number                                              1
 GLOBAL| Basis set file name            /hppfs/scratch/04/di38fab/04_TMD/BASIS_A
 GLOBAL| Potential file name            /hppfs/work/pn36zo/di38fab/cp2k/data/ALL
 GLOBAL| MM Potential file name                                     MM_POTENTIAL
 GLOBAL| Coordinate file name                                      __STD_INPUT__
 GLOBAL| Method name                                                        CP2K
 GLOBAL| Project name                                                       MoS2
 GLOBAL| Run type                                                         ENERGY
 GLOBAL| FFT library                                                       FFTW3
 GLOBAL| Diagonalization library                                       ScaLAPACK
 GLOBAL| DGEMM library                                                      BLAS
 GLOBAL| Orthonormality check for eigenvectors                          DISABLED
 GLOBAL| Matrix multiplication library                                 ScaLAPACK
 GLOBAL| All-to-all communication in single precision                          F
 GLOBAL| FFTs using library dependent lengths                                  F
 GLOBAL| Grid backend                                                       AUTO
 GLOBAL| Global print level                                               MEDIUM
 GLOBAL| MPI I/O enabled                                                       T
 GLOBAL| Total number of message passing processes                           216
 GLOBAL| Number of threads for this process                                    4
 GLOBAL| This output is from process                                           0
 GLOBAL| OpenMP stack size per thread (OMP_STACKSIZE)                    default
 GLOBAL| CPU model name             Intel(R) Xeon(R) Platinum 8174 CPU @ 3.10GHz

 MEMORY| system memory details [Kb]
 MEMORY|                        rank 0           min           max       average
 MEMORY| MemTotal             98436664      98436660      98436708      98436674
 MEMORY| MemFree              83185160      83185160      84264152      83877893
 MEMORY| Buffers                     0             0             0             0
 MEMORY| Cached                2827528       2383360       2827528       2439304
 MEMORY| Slab                  1262436       1157852       1262436       1220087
 MEMORY| SReclaimable           288676        265368        288676        271805
 MEMORY| MemLikelyFree        86301364      86301364      86931708      86589002


 *** Fundamental physical constants (SI units) ***

 *** Literature: B. J. Mohr and B. N. Taylor,
 ***             CODATA recommended values of the fundamental physical
 ***             constants: 2006, Web Version 5.1
 ***             http://physics.nist.gov/constants

 Speed of light in vacuum [m/s]                             2.99792458000000E+08
 Magnetic constant or permeability of vacuum [N/A**2]       1.25663706143592E-06
 Electric constant or permittivity of vacuum [F/m]          8.85418781762039E-12
 Planck constant (h) [J*s]                                  6.62606896000000E-34
 Planck constant (h-bar) [J*s]                              1.05457162825177E-34
 Elementary charge [C]                                      1.60217648700000E-19
 Electron mass [kg]                                         9.10938215000000E-31
 Electron g factor [ ]                                     -2.00231930436220E+00
 Proton mass [kg]                                           1.67262163700000E-27
 Fine-structure constant                                    7.29735253760000E-03
 Rydberg constant [1/m]                                     1.09737315685270E+07
 Avogadro constant [1/mol]                                  6.02214179000000E+23
 Boltzmann constant [J/K]                                   1.38065040000000E-23
 Atomic mass unit [kg]                                      1.66053878200000E-27
 Bohr radius [m]                                            5.29177208590000E-11

 *** Conversion factors ***

 [u] -> [a.u.]                                              1.82288848426455E+03
 [Angstrom] -> [Bohr] = [a.u.]                              1.88972613288564E+00
 [a.u.] = [Bohr] -> [Angstrom]                              5.29177208590000E-01
 [a.u.] -> [s]                                              2.41888432650478E-17
 [a.u.] -> [fs]                                             2.41888432650478E-02
 [a.u.] -> [J]                                              4.35974393937059E-18
 [a.u.] -> [N]                                              8.23872205491840E-08
 [a.u.] -> [K]                                              3.15774647902944E+05
 [a.u.] -> [kJ/mol]                                         2.62549961709828E+03
 [a.u.] -> [kcal/mol]                                       6.27509468713739E+02
 [a.u.] -> [Pa]                                             2.94210107994716E+13
 [a.u.] -> [bar]                                            2.94210107994716E+08
 [a.u.] -> [atm]                                            2.90362800883016E+08
 [a.u.] -> [eV]                                             2.72113838565563E+01
 [a.u.] -> [Hz]                                             6.57968392072181E+15
 [a.u.] -> [1/cm] (wave numbers)                            2.19474631370540E+05
 [a.u./Bohr**2] -> [1/cm]                                   5.14048714338585E+03
 

 CELL_TOP| Volume [angstrom^3]:                                     27000.000000
 CELL_TOP| Vector a [angstrom    30.000     0.000     0.000   |a| =    30.000000
 CELL_TOP| Vector b [angstrom     0.000    30.000     0.000   |b| =    30.000000
 CELL_TOP| Vector c [angstrom     0.000     0.000    30.000   |c| =    30.000000
 CELL_TOP| Angle (b,c), alpha [degree]:                                90.000000
 CELL_TOP| Angle (a,c), beta  [degree]:                                90.000000
 CELL_TOP| Angle (a,b), gamma [degree]:                                90.000000
 CELL_TOP| Numerically orthorhombic:                                         YES
 CELL_TOP| Periodicity                                                      NONE

 GENERATE|  Preliminary Number of Bonds generated:                             0
 GENERATE|  Achieved consistency in connectivity generation.

 CELL| Volume [angstrom^3]:                                         27000.000000
 CELL| Vector a [angstrom]:      30.000     0.000     0.000   |a| =    30.000000
 CELL| Vector b [angstrom]:       0.000    30.000     0.000   |b| =    30.000000
 CELL| Vector c [angstrom]:       0.000     0.000    30.000   |c| =    30.000000
 CELL| Angle (b,c), alpha [degree]:                                    90.000000
 CELL| Angle (a,c), beta  [degree]:                                    90.000000
 CELL| Angle (a,b), gamma [degree]:                                    90.000000
 CELL| Numerically orthorhombic:                                             YES
 CELL| Periodicity                                                          NONE

 CELL_REF| Volume [angstrom^3]:                                     27000.000000
 CELL_REF| Vector a [angstrom    30.000     0.000     0.000   |a| =    30.000000
 CELL_REF| Vector b [angstrom     0.000    30.000     0.000   |b| =    30.000000
 CELL_REF| Vector c [angstrom     0.000     0.000    30.000   |c| =    30.000000
 CELL_REF| Angle (b,c), alpha [degree]:                                90.000000
 CELL_REF| Angle (a,c), beta  [degree]:                                90.000000
 CELL_REF| Angle (a,b), gamma [degree]:                                90.000000
 CELL_REF| Numerically orthorhombic:                                         YES
 CELL_REF| Periodicity                                                      NONE

 *******************************************************************************
 *******************************************************************************
 **                                                                           **
 **     #####                         ##              ##                      **
 **    ##   ##            ##          ##              ##                      **
 **   ##     ##                       ##            ######                    **
 **   ##     ##  ##   ##  ##   #####  ##  ##   ####   ##    #####    #####    **
 **   ##     ##  ##   ##  ##  ##      ## ##   ##      ##   ##   ##  ##   ##   **
 **   ##  ## ##  ##   ##  ##  ##      ####     ###    ##   ######   ######    **
 **    ##  ###   ##   ##  ##  ##      ## ##      ##   ##   ##       ##        **
 **     #######   #####   ##   #####  ##  ##  ####    ##    #####   ##        **
 **           ##                                                    ##        **
 **                                                                           **
 **                                                ... make the atoms dance   **
 **                                                                           **
 **            Copyright (C) by CP2K developers group (2000-2025)             **
 **                      J. Chem. Phys. 152, 194103 (2020)                    **
 **                                                                           **
 *******************************************************************************

 DFT| Spin restricted Kohn-Sham (RKS) calculation                            RKS
 DFT| Multiplicity                                                             1
 DFT| Number of spin states                                                    1
 DFT| Charge                                                                   0
 DFT| Self-interaction correction (SIC)                                       NO
 DFT| Cutoffs: density                                              1.000000E-10
 DFT|          gradient                                             1.000000E-10
 DFT|          tau                                                  1.000000E-10
 DFT|          cutoff_smoothing_range                               0.000000E+00
 DFT| XC density smoothing                                                  NONE
 DFT| XC derivatives                                                          PW

 FUNCTIONAL| PBE:
 FUNCTIONAL| J.P.Perdew, K.Burke, M.Ernzerhof, Phys. Rev. Letter, vol. 77, n 18,
 FUNCTIONAL|  pp. 3865-3868, (1996)sx=0.750sc=1.000{spin unpolarized}           


 QS| Method:                                                                GAPW
 QS| Density plane wave grid type                        NON-SPHERICAL FULLSPACE
 QS| Number of grid levels:                                                    4
 QS| Density cutoff [a.u.]:                                                250.0
 QS| Multi grid cutoff [a.u.]: 1) grid level                               250.0
 QS|                           2) grid level                                83.3
 QS|                           3) grid level                                27.8
 QS|                           4) grid level                                 9.3
 QS| Grid level progression factor:                                          3.0
 QS| Relative density cutoff [a.u.]:                                        50.0
 QS| Interaction thresholds: eps_pgf_orb:                                1.0E-12
 QS|                         eps_filter_matrix:                          0.0E+00
 QS|                         eps_core_charge:                            1.0E-14
 QS|                         eps_rho_gspace:                             1.0E-12
 QS|                         eps_rho_rspace:                             1.0E-12
 QS|                         eps_gvg_rspace:                             1.0E-06
 QS|                         eps_ppl:                                    1.0E-02
 QS|                         eps_ppnl:                                   1.0E-08
 QS| GAPW|      One center basis from orbital basis primitives
 QS| GAPW|                   eps_fit:                                    1.0E-04
 QS| GAPW|                   eps_iso:                                    1.0E-12
 QS| GAPW|                   eps_svd:                                    1.0E-08
 QS| GAPW|                   eps_cpc:                                    1.0E-12
 QS| GAPW|   atom-r-grid: quadrature:                                     GC_LOG
 QS| GAPW|      atom-s-grid:  max l :                                          6
 QS| GAPW|      max_l_rho0 :                                                   2


 ATOMIC KIND INFORMATION

  1. Atomic kind: H                                     Number of atoms:       6

     Orbital Basis Set                                                   cc-pVTZ

       Number of orbital shell sets:                                           3
       Number of orbital shells:                                               6
       Number of primitive Cartesian functions:                                8
       Number of Cartesian basis functions:                                   15
       Number of spherical basis functions:                                   14
       Norm type:                                                              2

       Normalised Cartesian orbitals:

                        Set   Shell   Orbital            Exponent    Coefficient

                          1       1    1s               33.870000       0.000000
                                                         5.095000       0.000000
                                                         1.159000       0.000000
                                                         0.325800       0.307343
                                                         0.102700       0.000000

                          1       2    2s               33.870000       0.060718
                                                         5.095000       0.109507
                                                         1.159000       0.161468
                                                         0.325800       0.154871
                                                         0.102700       0.049575

                          1       3    3s               33.870000       0.000000
                                                         5.095000       0.000000
                                                         1.159000       0.000000
                                                         0.325800       0.000000
                                                         0.102700       0.129297

                          2       1    1px               1.407000       2.184277
                                                         0.388000       0.000000
                          2       1    1py               1.407000       2.184277
                                                         0.388000       0.000000
                          2       1    1pz               1.407000       2.184277
                                                         0.388000       0.000000

                          2       2    2px               1.407000       0.000000
                                                         0.388000       0.436495
                          2       2    2py               1.407000       0.000000
                                                         0.388000       0.436495
                          2       2    2pz               1.407000       0.000000
                                                         0.388000       0.436495

                          3       1    1dx2              1.057000       1.813597
                          3       1    1dxy              1.057000       3.141241
                          3       1    1dxz              1.057000       3.141241
                          3       1    1dy2              1.057000       1.813597
                          3       1    1dyz              1.057000       3.141241
                          3       1    1dz2              1.057000       1.813597

     RI Auxiliary Basis Set                                        cc-pVTZ-RIFIT

       Number of orbital shell sets:                                          10
       Number of orbital shells:                                              10
       Number of primitive Cartesian functions:                               10
       Number of Cartesian basis functions:                                   35
       Number of spherical basis functions:                                   30
       Norm type:                                                              2

       Normalised Cartesian orbitals:

                        Set   Shell   Orbital            Exponent    Coefficient

                          1       1    1s                0.289740       0.281460

                          2       1    1s                0.526184       0.440315

                          3       1    1px               0.603822       0.758711
                          3       1    1py               0.603822       0.758711
                          3       1    1pz               0.603822       0.758711

                          4       1    1dx2              1.143973       2.082748
                          4       1    1dxy              1.143973       3.607426
                          4       1    1dxz              1.143973       3.607426
                          4       1    1dy2              1.143973       2.082748
                          4       1    1dyz              1.143973       3.607426
                          4       1    1dz2              1.143973       2.082748

                          5       1    1px               1.180408       1.753802
                          5       1    1py               1.180408       1.753802
                          5       1    1pz               1.180408       1.753802

                          6       1    1fx3              1.806306       5.568458
                          6       1    1fx2y             1.806306      12.451451
                          6       1    1fx2z             1.806306      12.451451
                          6       1    1fxy2             1.806306      12.451451
                          6       1    1fxyz             1.806306      21.566546
                          6       1    1fxz2             1.806306      12.451451
                          6       1    1fy3              1.806306       5.568458
                          6       1    1fy2z             1.806306      12.451451
                          6       1    1fyz2             1.806306      12.451451
                          6       1    1fz3              1.806306       5.568458

                          7       1    1dx2              1.809637       4.647235
                          7       1    1dxy              1.809637       8.049248
                          7       1    1dxz              1.809637       8.049248
                          7       1    1dy2              1.809637       4.647235
                          7       1    1dyz              1.809637       8.049248
                          7       1    1dz2              1.809637       4.647235

                          8       1    1s                1.873089       1.141114

                          9       1    1px               2.372549       4.197195
                          9       1    1py               2.372549       4.197195
                          9       1    1pz               2.372549       4.197195

                         10       1    1s                8.512828       3.551939

       Atomic covalent radius [Angstrom]:                                  0.320

       Atomic van der Waals radius [Angstrom]:                             1.090

     The atoms of this atomic kind are PAW atoms (GAPW):
       Hard Gaussian function radius:                                      1.200
       Rho0 radius:                                                        1.200
       Maximum GTO radius used for PAW projector construction:            24.566

     GAPW Soft Basis Set                                            cc-pVTZ_soft

       Number of orbital shell sets:                                           3
       Number of orbital shells:                                               6
       Number of primitive Cartesian functions:                                7
       Number of Cartesian basis functions:                                   15
       Number of spherical basis functions:                                   14
       Norm type:                                                              2

       Normalised Cartesian orbitals:

                        Set   Shell   Orbital            Exponent    Coefficient

                          1       1    1s                5.095000       0.000000
                                                         1.159000       0.000000
                                                         0.325800       0.307343
                                                         0.102700       0.000000

                          1       2    2s                5.095000       0.109507
                                                         1.159000       0.161468
                                                         0.325800       0.154871
                                                         0.102700       0.049575

                          1       3    3s                5.095000       0.000000
                                                         1.159000       0.000000
                                                         0.325800       0.000000
                                                         0.102700       0.129297

                          2       1    1px               1.407000       2.184277
                                                         0.388000       0.000000
                          2       1    1py               1.407000       2.184277
                                                         0.388000       0.000000
                          2       1    1pz               1.407000       2.184277
                                                         0.388000       0.000000

                          2       2    2px               1.407000       0.000000
                                                         0.388000       0.436495
                          2       2    2py               1.407000       0.000000
                                                         0.388000       0.436495
                          2       2    2pz               1.407000       0.000000
                                                         0.388000       0.436495

                          3       1    1dx2              1.057000       1.813597
                          3       1    1dxy              1.057000       3.141241
                          3       1    1dxz              1.057000       3.141241
                          3       1    1dy2              1.057000       1.813597
                          3       1    1dyz              1.057000       3.141241
                          3       1    1dz2              1.057000       1.813597

     AE Potential information for                                            ALL

       Description:                                       All-electron potential
                                          Krack, Parrinello, PCCP 2, 2105 (2000)

       Gaussian exponent of the core charge distribution:              12.500000
       Electronic configuration (s p d ...):                           1   0   0

  2. Atomic kind: C                                     Number of atoms:       7

     Orbital Basis Set                                                   cc-pVTZ

       Number of orbital shell sets:                                           4
       Number of orbital shells:                                              10
       Number of primitive Cartesian functions:                               18
       Number of Cartesian basis functions:                                   35
       Number of spherical basis functions:                                   30
       Norm type:                                                              2

       Normalised Cartesian orbitals:

                        Set   Shell   Orbital            Exponent    Coefficient

                          1       1    1px              18.710000       0.000000
                                                         4.133000       0.000000
                                                         1.200000       0.000000
                                                         0.382700       0.429055
                                                         0.120900       0.000000
                          1       1    1py              18.710000       0.000000
                                                         4.133000       0.000000
                                                         1.200000       0.000000
                                                         0.382700       0.429055
                                                         0.120900       0.000000
                          1       1    1pz              18.710000       0.000000
                                                         4.133000       0.000000
                                                         1.200000       0.000000
                                                         0.382700       0.429055
                                                         0.120900       0.000000

                          1       2    2px              18.710000       0.778253
                                                         4.133000       0.729662
                                                         1.200000       0.519563
                                                         0.382700       0.214960
                                                         0.120900       0.034896
                          1       2    2py              18.710000       0.778253
                                                         4.133000       0.729662
                                                         1.200000       0.519563
                                                         0.382700       0.214960
                                                         0.120900       0.034896
                          1       2    2pz              18.710000       0.778253
                                                         4.133000       0.729662
                                                         1.200000       0.519563
                                                         0.382700       0.214960
                                                         0.120900       0.034896

                          1       3    3px              18.710000       0.000000
                                                         4.133000       0.000000
                                                         1.200000       0.000000
                                                         0.382700       0.000000
                                                         0.120900       0.101619
                          1       3    3py              18.710000       0.000000
                                                         4.133000       0.000000
                                                         1.200000       0.000000
                                                         0.382700       0.000000
                                                         0.120900       0.101619
                          1       3    3pz              18.710000       0.000000
                                                         4.133000       0.000000
                                                         1.200000       0.000000
                                                         0.382700       0.000000
                                                         0.120900       0.101619

                          2       1    1s             8236.000000       0.327184
                                                      1235.000000       0.609945
                                                       280.800000       1.030914
                                                        79.270000       1.549802
                                                        25.590000       1.904111
                                                         8.997000       1.608326
                                                         3.319000       0.606601
                                                         0.905900       0.026060
                                                         0.364300      -0.003002
                                                         0.128500       0.000365

                          2       2    2s             8236.000000       0.000000
                                                      1235.000000       0.000000
                                                       280.800000       0.000000
                                                        79.270000       0.000000
                                                        25.590000       0.000000
                                                         8.997000       0.000000
                                                         3.319000       0.000000
                                                         0.905900       0.661790
                                                         0.364300       0.000000
                                                         0.128500       0.000000

                          2       3    3s             8236.000000      -0.069627
                                                      1235.000000      -0.130363
                                                       280.800000      -0.221954
                                                        79.270000      -0.343330
                                                        25.590000      -0.452153
                                                         8.997000      -0.469816
                                                         3.319000      -0.298547
                                                         0.905900       0.092903
                                                         0.364300       0.200079
                                                         0.128500       0.060480

                          2       4    4s             8236.000000       0.000000
                                                      1235.000000       0.000000
                                                       280.800000       0.000000
                                                        79.270000       0.000000
                                                        25.590000       0.000000
                                                         8.997000       0.000000
                                                         3.319000       0.000000
                                                         0.905900       0.000000
                                                         0.364300       0.000000
                                                         0.128500       0.152963

                          3       1    1dx2              1.097000       1.935401
                                                         0.318000       0.000000
                          3       1    1dxy              1.097000       3.352214
                                                         0.318000       0.000000
                          3       1    1dxz              1.097000       3.352214
                                                         0.318000       0.000000
                          3       1    1dy2              1.097000       1.935401
                                                         0.318000       0.000000
                          3       1    1dyz              1.097000       3.352214
                                                         0.318000       0.000000
                          3       1    1dz2              1.097000       1.935401
                                                         0.318000       0.000000

                          3       2    2dx2              1.097000       0.000000
                                                         0.318000       0.221644
                          3       2    2dxy              1.097000       0.000000
                                                         0.318000       0.383899
                          3       2    2dxz              1.097000       0.000000
                                                         0.318000       0.383899
                          3       2    2dy2              1.097000       0.000000
                                                         0.318000       0.221644
                          3       2    2dyz              1.097000       0.000000
                                                         0.318000       0.383899
                          3       2    2dz2              1.097000       0.000000
                                                         0.318000       0.221644

                          4       1    1fx3              0.761000       0.796288
                          4       1    1fx2y             0.761000       1.780553
                          4       1    1fx2z             0.761000       1.780553
                          4       1    1fxy2             0.761000       1.780553
                          4       1    1fxyz             0.761000       3.084008
                          4       1    1fxz2             0.761000       1.780553
                          4       1    1fy3              0.761000       0.796288
                          4       1    1fy2z             0.761000       1.780553
                          4       1    1fyz2             0.761000       1.780553
                          4       1    1fz3              0.761000       0.796288

     RI Auxiliary Basis Set                                        cc-pVTZ-RIFIT

       Number of orbital shell sets:                                          23
       Number of orbital shells:                                              23
       Number of primitive Cartesian functions:                               23
       Number of Cartesian basis functions:                                  101
       Number of spherical basis functions:                                   81
       Norm type:                                                              2

       Normalised Cartesian orbitals:

                        Set   Shell   Orbital            Exponent    Coefficient

                          1       1    1s                0.215823       0.225675

                          2       1    1px               0.281527       0.292307
                          2       1    1py               0.281527       0.292307
                          2       1    1pz               0.281527       0.292307

                          3       1    1dx2              0.290556       0.189261
                          3       1    1dxy              0.290556       0.327810
                          3       1    1dxz              0.290556       0.327810
                          3       1    1dy2              0.290556       0.189261
                          3       1    1dyz              0.290556       0.327810
                          3       1    1dz2              0.290556       0.189261

                          4       1    1s                0.502749       0.425524

                          5       1    1fx3              0.541575       0.370413
                          5       1    1fx2y             0.541575       0.828268
                          5       1    1fx2z             0.541575       0.828268
                          5       1    1fxy2             0.541575       0.828268
                          5       1    1fxyz             0.541575       1.434603
                          5       1    1fxz2             0.541575       0.828268
                          5       1    1fy3              0.541575       0.370413
                          5       1    1fy2z             0.541575       0.828268
                          5       1    1fyz2             0.541575       0.828268
                          5       1    1fz3              0.541575       0.370413

                          6       1    1px               0.549413       0.674238
                          6       1    1py               0.549413       0.674238
                          6       1    1pz               0.549413       0.674238

                          7       1    1dx2              0.573708       0.622471
                          7       1    1dxy              0.573708       1.078151
                          7       1    1dxz              0.573708       1.078151
                          7       1    1dy2              0.573708       0.622471
                          7       1    1dyz              0.573708       1.078151
                          7       1    1dz2              0.573708       0.622471

                          8       1    1s                0.912450       0.665376

                          9       1    1px               1.037564       1.492652
                          9       1    1py               1.037564       1.492652
                          9       1    1pz               1.037564       1.492652

                         10       1    1fx3              1.196890       2.205852
                         10       1    1fx2y             1.196890       4.932435
                         10       1    1fx2z             1.196890       4.932435
                         10       1    1fxy2             1.196890       4.932435
                         10       1    1fxyz             1.196890       8.543228
                         10       1    1fxz2             1.196890       4.932435
                         10       1    1fy3              1.196890       2.205852
                         10       1    1fy2z             1.196890       4.932435
                         10       1    1fyz2             1.196890       4.932435
                         10       1    1fz3              1.196890       2.205852

                         11       1    1gx4              1.216610       1.908103
                         11       1    1gx3y             1.216610       5.048367
                         11       1    1gx3z             1.216610       5.048367
                         11       1    1gx2y2            1.216610       6.517414
                         11       1    1gx2yz            1.216610      11.288491
                         11       1    1gx2z2            1.216610       6.517414
                         11       1    1gxy3             1.216610       5.048367
                         11       1    1gxy2z            1.216610      11.288491
                         11       1    1gxyz2            1.216610      11.288491
                         11       1    1gxz3             1.216610       5.048367
                         11       1    1gy4              1.216610       1.908103
                         11       1    1gy3z             1.216610       5.048367
                         11       1    1gy2z2            1.216610       6.517414
                         11       1    1gyz3             1.216610       5.048367
                         11       1    1gz4              1.216610       1.908103

                         12       1    1dx2              1.467774       3.221535
                         12       1    1dxy              1.467774       5.579863
                         12       1    1dxz              1.467774       5.579863
                         12       1    1dy2              1.467774       3.221535
                         12       1    1dyz              1.467774       5.579863
                         12       1    1dz2              1.467774       3.221535

                         13       1    1s                1.562255       0.995919

                         14       1    1px               2.129088       3.665914
                         14       1    1py               2.129088       3.665914
                         14       1    1pz               2.129088       3.665914

                         15       1    1fx3              2.275620       9.363300
                         15       1    1fx2y             2.275620      20.936975
                         15       1    1fx2z             2.275620      20.936975
                         15       1    1fxy2             2.275620      20.936975
                         15       1    1fxyz             2.275620      36.263904
                         15       1    1fxz2             2.275620      20.936975
                         15       1    1fy3              2.275620       9.363300
                         15       1    1fy2z             2.275620      20.936975
                         15       1    1fyz2             2.275620      20.936975
                         15       1    1fz3              2.275620       9.363300

                         16       1    1dx2              3.035148      11.487463
                         16       1    1dxy              3.035148      19.896869
                         16       1    1dxz              3.035148      19.896869
                         16       1    1dy2              3.035148      11.487463
                         16       1    1dyz              3.035148      19.896869
                         16       1    1dz2              3.035148      11.487463

                         17       1    1px               6.476451      14.726905
                         17       1    1py               6.476451      14.726905
                         17       1    1pz               6.476451      14.726905

                         18       1    1s                6.862093       3.021708

                         19       1    1dx2              9.718981      88.053322
                         19       1    1dxy              9.718981     152.512828
                         19       1    1dxz              9.718981     152.512828
                         19       1    1dy2              9.718981      88.053322
                         19       1    1dyz              9.718981     152.512828
                         19       1    1dz2              9.718981      88.053322

                         20       1    1s               22.116651       7.268581

                         21       1    1px              24.231865      76.634379
                         21       1    1py              24.231865      76.634379
                         21       1    1pz              24.231865      76.634379

                         22       1    1s               60.230247      15.408880

                         23       1    1s              280.556612      48.856851

       Atomic covalent radius [Angstrom]:                                  0.770

       Atomic van der Waals radius [Angstrom]:                             1.700

     The atoms of this atomic kind are PAW atoms (GAPW):
       Hard Gaussian function radius:                                      1.512
       Rho0 radius:                                                        1.512
       Maximum GTO radius used for PAW projector construction:            24.566

     GAPW Soft Basis Set                                            cc-pVTZ_soft

       Number of orbital shell sets:                                           4
       Number of orbital shells:                                              10
       Number of primitive Cartesian functions:                               11
       Number of Cartesian basis functions:                                   35
       Number of spherical basis functions:                                   30
       Norm type:                                                              2

       Normalised Cartesian orbitals:

                        Set   Shell   Orbital            Exponent    Coefficient

                          1       1    1px               4.133000       0.000000
                                                         1.200000       0.000000
                                                         0.382700       0.429055
                                                         0.120900       0.000000
                          1       1    1py               4.133000       0.000000
                                                         1.200000       0.000000
                                                         0.382700       0.429055
                                                         0.120900       0.000000
                          1       1    1pz               4.133000       0.000000
                                                         1.200000       0.000000
                                                         0.382700       0.429055
                                                         0.120900       0.000000

                          1       2    2px               4.133000       0.729662
                                                         1.200000       0.519563
                                                         0.382700       0.214960
                                                         0.120900       0.034896
                          1       2    2py               4.133000       0.729662
                                                         1.200000       0.519563
                                                         0.382700       0.214960
                                                         0.120900       0.034896
                          1       2    2pz               4.133000       0.729662
                                                         1.200000       0.519563
                                                         0.382700       0.214960
                                                         0.120900       0.034896

                          1       3    3px               4.133000       0.000000
                                                         1.200000       0.000000
                                                         0.382700       0.000000
                                                         0.120900       0.101619
                          1       3    3py               4.133000       0.000000
                                                         1.200000       0.000000
                                                         0.382700       0.000000
                                                         0.120900       0.101619
                          1       3    3pz               4.133000       0.000000
                                                         1.200000       0.000000
                                                         0.382700       0.000000
                                                         0.120900       0.101619

                          2       1    1s                3.319000       0.606601
                                                         0.905900       0.026060
                                                         0.364300      -0.003002
                                                         0.128500       0.000365

                          2       2    2s                3.319000       0.000000
                                                         0.905900       0.661790
                                                         0.364300       0.000000
                                                         0.128500       0.000000

                          2       3    3s                3.319000      -0.298547
                                                         0.905900       0.092903
                                                         0.364300       0.200079
                                                         0.128500       0.060480

                          2       4    4s                3.319000       0.000000
                                                         0.905900       0.000000
                                                         0.364300       0.000000
                                                         0.128500       0.152963

                          3       1    1dx2              1.097000       1.935401
                                                         0.318000       0.000000
                          3       1    1dxy              1.097000       3.352214
                                                         0.318000       0.000000
                          3       1    1dxz              1.097000       3.352214
                                                         0.318000       0.000000
                          3       1    1dy2              1.097000       1.935401
                                                         0.318000       0.000000
                          3       1    1dyz              1.097000       3.352214
                                                         0.318000       0.000000
                          3       1    1dz2              1.097000       1.935401
                                                         0.318000       0.000000

                          3       2    2dx2              1.097000       0.000000
                                                         0.318000       0.221644
                          3       2    2dxy              1.097000       0.000000
                                                         0.318000       0.383899
                          3       2    2dxz              1.097000       0.000000
                                                         0.318000       0.383899
                          3       2    2dy2              1.097000       0.000000
                                                         0.318000       0.221644
                          3       2    2dyz              1.097000       0.000000
                                                         0.318000       0.383899
                          3       2    2dz2              1.097000       0.000000
                                                         0.318000       0.221644

                          4       1    1fx3              0.761000       0.796288
                          4       1    1fx2y             0.761000       1.780553
                          4       1    1fx2z             0.761000       1.780553
                          4       1    1fxy2             0.761000       1.780553
                          4       1    1fxyz             0.761000       3.084008
                          4       1    1fxz2             0.761000       1.780553
                          4       1    1fy3              0.761000       0.796288
                          4       1    1fy2z             0.761000       1.780553
                          4       1    1fyz2             0.761000       1.780553
                          4       1    1fz3              0.761000       0.796288

     AE Potential information for                                            ALL

       Description:                                       All-electron potential
                                          Krack, Parrinello, PCCP 2, 2105 (2000)

       Gaussian exponent of the core charge distribution:               4.109048
       Electronic configuration (s p d ...):                           4   2   0

  3. Atomic kind: O                                     Number of atoms:       1

     Orbital Basis Set                                                   cc-pVTZ

       Number of orbital shell sets:                                           4
       Number of orbital shells:                                              10
       Number of primitive Cartesian functions:                               18
       Number of Cartesian basis functions:                                   35
       Number of spherical basis functions:                                   30
       Norm type:                                                              2

       Normalised Cartesian orbitals:

                        Set   Shell   Orbital            Exponent    Coefficient

                          1       1    1px              34.460000       0.000000
                                                         7.749000       0.000000
                                                         2.280000       0.000000
                                                         0.715600       0.938162
                                                         0.214000       0.000000
                          1       1    1py              34.460000       0.000000
                                                         7.749000       0.000000
                                                         2.280000       0.000000
                                                         0.715600       0.938162
                                                         0.214000       0.000000
                          1       1    1pz              34.460000       0.000000
                                                         7.749000       0.000000
                                                         2.280000       0.000000
                                                         0.715600       0.938162
                                                         0.214000       0.000000

                          1       2    2px              34.460000       1.895593
                                                         7.749000       1.838088
                                                         2.280000       1.239963
                                                         0.715600       0.460662
                                                         0.214000       0.069780
                          1       2    2py              34.460000       1.895593
                                                         7.749000       1.838088
                                                         2.280000       1.239963
                                                         0.715600       0.460662
                                                         0.214000       0.069780
                          1       2    2pz              34.460000       1.895593
                                                         7.749000       1.838088
                                                         2.280000       1.239963
                                                         0.715600       0.460662
                                                         0.214000       0.069780

                          1       3    3px              34.460000       0.000000
                                                         7.749000       0.000000
                                                         2.280000       0.000000
                                                         0.715600       0.000000
                                                         0.214000       0.207471
                          1       3    3py              34.460000       0.000000
                                                         7.749000       0.000000
                                                         2.280000       0.000000
                                                         0.715600       0.000000
                                                         0.214000       0.207471
                          1       3    3pz              34.460000       0.000000
                                                         7.749000       0.000000
                                                         2.280000       0.000000
                                                         0.715600       0.000000
                                                         0.214000       0.207471

                          2       1    1s            15330.000000       0.498804
                                                      2299.000000       0.929707
                                                       522.400000       1.576475
                                                       147.300000       2.386068
                                                        47.550000       2.977116
                                                        16.760000       2.556946
                                                         6.207000       0.981661
                                                         1.752000       0.046374
                                                         0.688200      -0.004391
                                                         0.238400       0.000579

                          2       2    2s            15330.000000       0.000000
                                                      2299.000000       0.000000
                                                       522.400000       0.000000
                                                       147.300000       0.000000
                                                        47.550000       0.000000
                                                        16.760000       0.000000
                                                         6.207000       0.000000
                                                         1.752000       1.085327
                                                         0.688200       0.000000
                                                         0.238400       0.000000

                          2       3    3s            15330.000000      -0.112918
                                                      2299.000000      -0.211781
                                                       522.400000      -0.361041
                                                       147.300000      -0.564236
                                                        47.550000      -0.754491
                                                        16.760000      -0.805621
                                                         6.207000      -0.492541
                                                         1.752000       0.174666
                                                         0.688200       0.324949
                                                         0.238400       0.092100

                          2       4    4s            15330.000000       0.000000
                                                      2299.000000       0.000000
                                                       522.400000       0.000000
                                                       147.300000       0.000000
                                                        47.550000       0.000000
                                                        16.760000       0.000000
                                                         6.207000       0.000000
                                                         1.752000       0.000000
                                                         0.688200       0.000000
                                                         0.238400       0.243159

                          3       1    1dx2              2.314000       7.145709
                                                         0.645000       0.000000
                          3       1    1dxy              2.314000      12.376731
                                                         0.645000       0.000000
                          3       1    1dxz              2.314000      12.376731
                                                         0.645000       0.000000
                          3       1    1dy2              2.314000       7.145709
                                                         0.645000       0.000000
                          3       1    1dyz              2.314000      12.376731
                                                         0.645000       0.000000
                          3       1    1dz2              2.314000       7.145709
                                                         0.645000       0.000000

                          3       2    2dx2              2.314000       0.000000
                                                         0.645000       0.764080
                          3       2    2dxy              2.314000       0.000000
                                                         0.645000       1.323426
                          3       2    2dxz              2.314000       0.000000
                                                         0.645000       1.323426
                          3       2    2dy2              2.314000       0.000000
                                                         0.645000       0.764080
                          3       2    2dyz              2.314000       0.000000
                                                         0.645000       1.323426
                          3       2    2dz2              2.314000       0.000000
                                                         0.645000       0.764080

                          4       1    1fx3              1.428000       3.281655
                          4       1    1fx2y             1.428000       7.338004
                          4       1    1fx2z             1.428000       7.338004
                          4       1    1fxy2             1.428000       7.338004
                          4       1    1fxyz             1.428000      12.709795
                          4       1    1fxz2             1.428000       7.338004
                          4       1    1fy3              1.428000       3.281655
                          4       1    1fy2z             1.428000       7.338004
                          4       1    1fyz2             1.428000       7.338004
                          4       1    1fz3              1.428000       3.281655

     RI Auxiliary Basis Set                                        cc-pVTZ-RIFIT

       Number of orbital shell sets:                                          23
       Number of orbital shells:                                              23
       Number of primitive Cartesian functions:                               23
       Number of Cartesian basis functions:                                  101
       Number of spherical basis functions:                                   81
       Norm type:                                                              2

       Normalised Cartesian orbitals:

                        Set   Shell   Orbital            Exponent    Coefficient

                          1       1    1s                0.365053       0.334716

                          2       1    1dx2              0.503534       0.495404
                          2       1    1dxy              0.503534       0.858066
                          2       1    1dxz              0.503534       0.858066
                          2       1    1dy2              0.503534       0.495404
                          2       1    1dyz              0.503534       0.858066
                          2       1    1dz2              0.503534       0.495404

                          3       1    1px               0.518456       0.627090
                          3       1    1py               0.518456       0.627090
                          3       1    1pz               0.518456       0.627090

                          4       1    1s                0.812507       0.609930

                          5       1    1px               0.974192       1.379577
                          5       1    1py               0.974192       1.379577
                          5       1    1pz               0.974192       1.379577

                          6       1    1fx3              1.089407       1.784975
                          6       1    1fx2y             1.089407       3.991326
                          6       1    1fx2z             1.089407       3.991326
                          6       1    1fxy2             1.089407       3.991326
                          6       1    1fxyz             1.089407       6.913179
                          6       1    1fxz2             1.089407       3.991326
                          6       1    1fy3              1.089407       1.784975
                          6       1    1fy2z             1.089407       3.991326
                          6       1    1fyz2             1.089407       3.991326
                          6       1    1fz3              1.089407       1.784975

                          7       1    1dx2              1.162446       2.141962
                          7       1    1dxy              1.162446       3.709987
                          7       1    1dxz              1.162446       3.709987
                          7       1    1dy2              1.162446       2.141962
                          7       1    1dyz              1.162446       3.709987
                          7       1    1dz2              1.162446       2.141962

                          8       1    1s                1.333156       0.884242

                          9       1    1fx3              2.151279       8.251294
                          9       1    1fx2y             2.151279      18.450455
                          9       1    1fx2z             2.151279      18.450455
                          9       1    1fxy2             2.151279      18.450455
                          9       1    1fxyz             2.151279      31.957126
                          9       1    1fxz2             2.151279      18.450455
                          9       1    1fy3              2.151279       8.251294
                          9       1    1fy2z             2.151279      18.450455
                          9       1    1fyz2             2.151279      18.450455
                          9       1    1fz3              2.151279       8.251294

                         10       1    1px               2.167884       3.749602
                         10       1    1py               2.167884       3.749602
                         10       1    1pz               2.167884       3.749602

                         11       1    1gx4              2.327096      11.354683
                         11       1    1gx3y             2.327096      30.041666
                         11       1    1gx3z             2.327096      30.041666
                         11       1    1gx2y2            2.327096      38.783625
                         11       1    1gx2yz            2.327096      67.175208
                         11       1    1gx2z2            2.327096      38.783625
                         11       1    1gxy3             2.327096      30.041666
                         11       1    1gxy2z            2.327096      67.175208
                         11       1    1gxyz2            2.327096      67.175208
                         11       1    1gxz3             2.327096      30.041666
                         11       1    1gy4              2.327096      11.354683
                         11       1    1gy3z             2.327096      30.041666
                         11       1    1gy2z2            2.327096      38.783625
                         11       1    1gyz3             2.327096      30.041666
                         11       1    1gz4              2.327096      11.354683

                         12       1    1dx2              2.955262      10.963584
                         12       1    1dxy              2.955262      18.989484
                         12       1    1dxz              2.955262      18.989484
                         12       1    1dy2              2.955262      10.963584
                         12       1    1dyz              2.955262      18.989484
                         12       1    1dz2              2.955262      10.963584

                         13       1    1s                3.020208       1.632818

                         14       1    1px               3.913772       7.846654
                         14       1    1py               3.913772       7.846654
                         14       1    1pz               3.913772       7.846654

                         15       1    1fx3              4.687385      47.593571
                         15       1    1fx2y             4.687385     106.422459
                         15       1    1fx2z             4.687385     106.422459
                         15       1    1fxy2             4.687385     106.422459
                         15       1    1fxyz             4.687385     184.329107
                         15       1    1fxz2             4.687385     106.422459
                         15       1    1fy3              4.687385      47.593571
                         15       1    1fy2z             4.687385     106.422459
                         15       1    1fyz2             4.687385     106.422459
                         15       1    1fz3              4.687385      47.593571

                         16       1    1dx2              5.379933      31.280160
                         16       1    1dxy              5.379933      54.178826
                         16       1    1dxz              5.379933      54.178826
                         16       1    1dy2              5.379933      31.280160
                         16       1    1dyz              5.379933      54.178826
                         16       1    1dz2              5.379933      31.280160

                         17       1    1s                8.416559       3.521770

                         18       1    1px              15.021796      42.154351
                         18       1    1py              15.021796      42.154351
                         18       1    1pz              15.021796      42.154351

                         19       1    1dx2             15.907733     208.556618
                         19       1    1dxy             15.907733     361.230658
                         19       1    1dxz             15.907733     361.230658
                         19       1    1dy2             15.907733     208.556618
                         19       1    1dyz             15.907733     361.230658
                         19       1    1dz2             15.907733     208.556618

                         20       1    1s               24.573835       7.866197

                         21       1    1px              52.854386     203.138098
                         21       1    1py              52.854386     203.138098
                         21       1    1pz              52.854386     203.138098

                         22       1    1s               76.693315      18.470482

                         23       1    1s              366.545315      59.704332

       Atomic covalent radius [Angstrom]:                                  0.730

       Atomic van der Waals radius [Angstrom]:                             1.520

     The atoms of this atomic kind are PAW atoms (GAPW):
       Hard Gaussian function radius:                                      1.512
       Rho0 radius:                                                        1.512
       Maximum GTO radius used for PAW projector construction:            24.566

     GAPW Soft Basis Set                                            cc-pVTZ_soft

       Number of orbital shell sets:                                           4
       Number of orbital shells:                                              10
       Number of primitive Cartesian functions:                                9
       Number of Cartesian basis functions:                                   35
       Number of spherical basis functions:                                   30
       Norm type:                                                              2

       Normalised Cartesian orbitals:

                        Set   Shell   Orbital            Exponent    Coefficient

                          1       1    1px               2.280000       0.000000
                                                         0.715600       0.938162
                                                         0.214000       0.000000
                          1       1    1py               2.280000       0.000000
                                                         0.715600       0.938162
                                                         0.214000       0.000000
                          1       1    1pz               2.280000       0.000000
                                                         0.715600       0.938162
                                                         0.214000       0.000000

                          1       2    2px               2.280000       1.239963
                                                         0.715600       0.460662
                                                         0.214000       0.069780
                          1       2    2py               2.280000       1.239963
                                                         0.715600       0.460662
                                                         0.214000       0.069780
                          1       2    2pz               2.280000       1.239963
                                                         0.715600       0.460662
                                                         0.214000       0.069780

                          1       3    3px               2.280000       0.000000
                                                         0.715600       0.000000
                                                         0.214000       0.207471
                          1       3    3py               2.280000       0.000000
                                                         0.715600       0.000000
                                                         0.214000       0.207471
                          1       3    3pz               2.280000       0.000000
                                                         0.715600       0.000000
                                                         0.214000       0.207471

                          2       1    1s                1.752000       0.046374
                                                         0.688200      -0.004391
                                                         0.238400       0.000579

                          2       2    2s                1.752000       1.085327
                                                         0.688200       0.000000
                                                         0.238400       0.000000

                          2       3    3s                1.752000       0.174666
                                                         0.688200       0.324949
                                                         0.238400       0.092100

                          2       4    4s                1.752000       0.000000
                                                         0.688200       0.000000
                                                         0.238400       0.243159

                          3       1    1dx2              2.314000       7.145709
                                                         0.645000       0.000000
                          3       1    1dxy              2.314000      12.376731
                                                         0.645000       0.000000
                          3       1    1dxz              2.314000      12.376731
                                                         0.645000       0.000000
                          3       1    1dy2              2.314000       7.145709
                                                         0.645000       0.000000
                          3       1    1dyz              2.314000      12.376731
                                                         0.645000       0.000000
                          3       1    1dz2              2.314000       7.145709
                                                         0.645000       0.000000

                          3       2    2dx2              2.314000       0.000000
                                                         0.645000       0.764080
                          3       2    2dxy              2.314000       0.000000
                                                         0.645000       1.323426
                          3       2    2dxz              2.314000       0.000000
                                                         0.645000       1.323426
                          3       2    2dy2              2.314000       0.000000
                                                         0.645000       0.764080
                          3       2    2dyz              2.314000       0.000000
                                                         0.645000       1.323426
                          3       2    2dz2              2.314000       0.000000
                                                         0.645000       0.764080

                          4       1    1fx3              1.428000       3.281655
                          4       1    1fx2y             1.428000       7.338004
[...]
 integrate_vhg0_rspace               67  8.0    0.083    0.113    2.745    2.757
 rs_gather_matrices                  67 10.0    0.007    0.011    2.395    2.530
 grid_integrate_task_list            67 10.0    0.125    2.450    0.125    2.450
 mp_waitall_2                        48 15.8    0.314    2.410    0.314    2.410
 create_qs_kind_set                   1  2.0    0.000    0.000    2.329    2.329
 read_qs_kind                         4  3.0    1.318    1.355    2.329    2.329
 mp_waitall_1                     70306 12.0    1.706    2.210    1.706    2.210
 mp_sum_dm                         3086  7.6    2.062    2.157    2.062    2.157
 rpa_num_int_RPA_matrix_operati     100  7.0    0.001    0.003    1.992    1.993
 dbt_tas_multiply                     8 11.5    0.000    0.000    1.861    1.862
 dbt_tas_total                        8 12.5    0.002    0.003    1.859    1.859
 mp_cart_create                     511 10.0    1.420    1.652    1.421    1.652
 dbt_pgrid_create_expert             84 10.8    0.000    0.000    1.389    1.620
 calc_mat_Q                         100  8.0    0.000    0.000    1.524    1.535
 contract_S_to_Q                    100  9.0    0.001    0.001    1.509    1.521
 transfer_pw2rs_30                   67 12.0    0.615    0.665    1.407    1.507
 transfer_rs2pw_30                   67  9.0    0.635    0.665    1.454    1.492
 dbt_copy                            12 10.1    0.000    0.001    0.254    1.371
 dbt_tas_replicate                    8 13.5    0.042    0.061    0.223    1.367
 xc_functional_eval                 462 10.9    0.001    0.002    0.982    1.361
 pbe_lda_eval                       462 11.9    0.981    1.359    0.981    1.359
 dbt_reshape                          8 11.6    0.023    0.033    0.210    1.325
 dbt_tas_communicate_buffer          16 15.9    0.002    0.003    0.151    1.297
 dbt_tas_replicate_communicate_       6 14.5    0.000    0.000    0.143    1.289
 dbt_communicate_buffer               8 12.6    0.002    0.002    0.176    1.288
 calculate_rho_atom                 268  9.0    0.565    1.266    0.565    1.266
 qs_energies_init_hamiltonians        1  3.0    0.000    0.000    1.262    1.262
 build_core_hamiltonian_matrix        1  4.0    0.000    0.000    1.250    1.250
 overlap_condnum                      1  5.0    0.000    0.001    1.245    1.248
 dbt_remap                            8 10.0    0.002    0.002    1.161    1.163
 mp_sendrecv_dv                   28810 10.0    1.105    1.157    1.105    1.157
 calculate_rho_atom_coeff            67  6.0    0.018    0.035    1.152    1.155
 arnoldi_conjugate_gradient           5  6.0    0.025    0.030    1.115    1.115
 dbt_nd_mp_comm                       8 11.0    0.000    0.000    1.016    1.114
 pw_scatter_p                       731 12.1    0.954    1.085    0.954    1.085
 mp_sum_dv                        21991 10.8    0.964    1.080    0.964    1.080
 parser_read_line                280162  4.0    0.095    0.106    1.011    1.033
 parser_read_line_low               304  5.0    0.088    0.412    0.916    0.940
 broadcast_input_information        304  6.0    0.212    0.232    0.828    0.892
 transfer_pw2rs_90                   67 12.0    0.169    0.199    0.772    0.884
 cp2k_distribution_to_z_slices       67  9.0    0.309    0.337    0.715    0.875
 rs_grid_zero                       337 11.2    0.838    0.871    0.838    0.871
 pw_gather_p                        667 11.8    0.737    0.850    0.737    0.850
 cp_fm_cholesky_invert              101  8.0    0.754    0.796    0.754    0.796
 fft_wrap_pw1pw2_90                 134 10.5    0.020    0.035    0.697    0.792
 transfer_rs2pw_90                   67  9.0    0.171    0.212    0.673    0.759
 mp_isendrecv_dv                  57620 12.0    0.393    0.742    0.393    0.742
 pw_derive                          597 11.3    0.655    0.697    0.655    0.697
 dbcsr_sym_matrix_vector_mult      3595  7.0    0.057    0.061    0.588    0.687
 cp_fm_syrk                           3  7.0    0.587    0.667    0.587    0.667
 compute_vec_Sigma_x_minus_vxc_       1  4.0    0.000    0.000    0.662    0.662
 pw_poisson_rebuild                  67  9.0    0.000    0.000    0.553    0.577
 ps_wavelet_create                    1 10.0    0.000    0.000    0.553    0.577
 RS_z_slice_distribution              1 11.0    0.499    0.539    0.553    0.577
 pw_copy                           1000 10.6    0.504    0.546    0.504    0.546
 calculate_dm_sparse                 66  6.0    0.001    0.001    0.525    0.543
 cp_dbcsr_plus_fm_fm_t               66  7.0    0.001    0.001    0.524    0.542
 mp2_eri_3c_integrate                 1  7.0    0.005    0.009    0.170    0.492
 create_B                             1  8.0    0.000    0.000    0.483    0.490
 integrate_set_3c                  7710  8.0    0.148    0.441    0.165    0.486
 transfer_pw2rs_10                   67 12.0    0.161    0.188    0.453    0.480
 cp_fm_cholesky_decompose           102  9.0    0.463    0.471    0.463    0.471
 integrate_four_center_getP          67 10.0    0.031    0.034    0.467    0.468
 dbcsr_complete_redistribute        233  8.4    0.019    0.022    0.453    0.462
 transfer_rs2pw_10                   67  9.0    0.163    0.176    0.449    0.458
 compute_Erpa_by_freq_int           100  8.0    0.002    0.002    0.448    0.448
 mp_bcast_i_src                    1216  7.0    0.252    0.429    0.252    0.429
 create_A                             1  8.0    0.001    0.002    0.419    0.426
 integrate_four_center_dist_KS       67 10.0    0.028    0.033    0.422    0.423
 dbt_tas_dbm                          8 13.5    0.000    0.000    0.421    0.421
 pw_poisson_set                      68  8.9    0.002    0.002    0.399    0.408
 dbm_multiply                         8 15.5    0.304    0.404    0.304    0.404
 mp_bcast_am_src                    304  7.0    0.324    0.375    0.351    0.392
 dbt_tas_mm_1N                        6 14.5    0.000    0.000    0.292    0.391
 Vh_1c_gg_integrals                  67  8.0    0.010    0.207    0.232    0.383
 mp_irecv_dm3                      2424 11.5    0.181    0.383    0.181    0.383
 mp2_main_alloc_hfx                   1  4.0    0.169    0.376    0.169    0.376
 mp_sum_i                            21  9.7    0.208    0.368    0.208    0.368
 restraint_control                    1  2.0    0.000    0.000    0.207    0.367
 mp_sum_l                           941  6.1    0.271    0.358    0.271    0.358
 cp_fm_to_fm_submat_general         112 10.1    0.235    0.352    0.235    0.352
 init_scf_run                         1  3.0    0.000    0.000    0.348    0.349
 integrate_four_center_load          67 10.0    0.000    0.001    0.254    0.339
 hfx_load_balance                     1 11.0    0.000    0.000    0.254    0.339
 qs_init_subsys                       1  2.0    0.004    0.005    0.331    0.331
 pw_copy_to_array                   667 11.8    0.281    0.331    0.281    0.331
 dbcsr_add_d                       5444  7.0    0.005    0.006    0.048    0.324
 mp_max_i                           679  2.7    0.148    0.322    0.148    0.322
 dbcsr_add_anytype                 5444  8.0    0.006    0.040    0.043    0.318
 hfx_load_balance_range               1 12.0    0.000    0.000    0.231    0.315
 qs_env_setup                         1  3.0    0.000    0.000    0.309    0.315
 copy_dbcsr_to_fm                    97  6.5    0.002    0.002    0.306    0.314
 qs_env_rebuild_pw_env                2  3.5    0.000    0.000    0.308    0.314
 dbcsr_multiply_generic             111  8.1    0.006    0.007    0.292    0.314
 pw_env_rebuild                       1  5.0    0.001    0.001    0.308    0.313
 copy_fm_to_dbcsr                   136  8.1    0.001    0.001    0.299    0.308
 pw_integral_ab_c1d_c1d_gs           67  9.0    0.218    0.221    0.279    0.306
 mp_isend_dm3                      2424 11.5    0.136    0.303    0.136    0.303
 scf_env_initial_rho_setup            1  4.0    0.000    0.000    0.294    0.295
 mp_alltoall_z11v                   268 13.5    0.282    0.295    0.282    0.295
 fft_wrap_pw1pw2_30                 134 10.5    0.004    0.004    0.278    0.288
 pw_axpy                            665  9.3    0.246    0.282    0.246    0.282
 pw_copy_from_array                 731 12.1    0.221    0.279    0.221    0.279
 dbcsr_col_vec_to_rep_row          3595  8.0    0.025    0.029    0.194    0.279
 dbcsr_rep_row_to_rep_col_vec      3595  8.0    0.018    0.022    0.114    0.269
 dbt_tas_estimate_result_nze          4 12.0    0.003    0.005    0.259    0.260
 fm_general_add_bse                   5 10.2    0.000    0.000    0.240    0.254
 mp_bcast_dv                       3667  9.0    0.146    0.249    0.146    0.249
 mp_alltoall_i11v                   798  9.3    0.208    0.209    0.208    0.209
 dbcsr_desymmetrize_deep             99  7.5    0.004    0.005    0.200    0.207
 dbcsr_finalize                    6908 10.6    0.010    0.070    0.037    0.205
 cp_fm_redistribute_start            72  8.0    0.113    0.148    0.156    0.199
 mp_isend_dv                      21751 11.9    0.137    0.189    0.137    0.189
 yz_to_xz                           134 14.0    0.012    0.014    0.172    0.182
 pw_grid_setup                        4  6.0    0.000    0.000    0.163    0.169
 pw_grid_setup_internal               4  7.0    0.003    0.004    0.163    0.169
 create_integ_mat                     4  6.0    0.001    0.002    0.146    0.162
 array2fm                             4  7.0    0.000    0.000    0.123    0.158
 multiply_cannon                    111  9.1    0.012    0.013    0.138    0.156
 hybrid_alltoall_any                321 11.0    0.015    0.018    0.143    0.153
 fft_wrap_pw1pw2_10                 134 10.5    0.001    0.001    0.148    0.151
 pw_zero                            398 10.3    0.129    0.148    0.129    0.148
 cp_fm_uplo_to_full                 104  8.0    0.041    0.140    0.041    0.140
 compute_max_radius                   1  6.0    0.064    0.139    0.064    0.139
 xz_to_yz                           134 11.0    0.008    0.010    0.130    0.133
 update_ks_atom                      67  8.0    0.013    0.024    0.113    0.130
 offload_free_buffer                 75  8.4    0.114    0.125    0.114    0.125
 make_m2s                           222  9.1    0.005    0.005    0.113    0.125
 mp_bcast_dm                       2010  9.0    0.100    0.119    0.100    0.119
 mp_rank_compare                   1398 12.9    0.114    0.118    0.114    0.118
 multiply_cannon_loop               111 10.1    0.017    0.018    0.102    0.117
 vxc_of_r_new                       396  9.0    0.000    0.018    0.003    0.114
 cp_fm_symm                          67  7.0    0.102    0.108    0.102    0.108
 dbcsr_iterator_start             44190  8.8    0.052    0.081    0.061    0.101
 dbcsr_merge_all                   6118 11.3    0.013    0.078    0.021    0.097
 rs_scatter_matrices                 67  7.0    0.001    0.002    0.094    0.096
 dbcsr_copy                       15031  7.6    0.054    0.059    0.088    0.095
 array2fm_info                        4  8.0    0.059    0.082    0.061    0.083
 make_images                        222 10.1    0.014    0.017    0.072    0.082
 mult_B_with_W                        1  8.0    0.000    0.000    0.072    0.079
 postprocess_bse                      1  9.0    0.000    0.000    0.075    0.078
 rs_grid_create_descriptor            4  6.0    0.001    0.001    0.076    0.077
 calculate_rho0_atom                268  9.0    0.071    0.074    0.071    0.074
 scale_and_distribute               134 10.0    0.067    0.074    0.067    0.074
 fm_general_add_bse_4_buf_from_       1 10.0    0.049    0.073    0.049    0.073
 pw_grid_sort                         4  8.0    0.043    0.045    0.067    0.070
 fm_general_add_bse_5_comm_buff       5 11.2    0.000    0.000    0.050    0.068
 communicate_buffer                   5 12.2    0.001    0.001    0.050    0.068
 fm_general_add_bse_1_setup           5 11.2    0.055    0.065    0.055    0.065
 mp_bcast_iv                        455  6.0    0.030    0.065    0.030    0.065
 dbcsr_iterator_stop              44190  8.8    0.038    0.053    0.046    0.063
 dbt_split_blocks_generic            20  8.8    0.017    0.020    0.060    0.062
 mp_alltoall_i22                    332  9.2    0.046    0.060    0.046    0.060
 pw_scale                           265  9.5    0.045    0.059    0.045    0.059
 scf_post_calculation_gpw             1  3.0    0.000    0.000    0.059    0.059
 write_available_results              1  4.0    0.000    0.000    0.058    0.059
 write_mo_free_results                1  5.0    0.003    0.004    0.058    0.059
 dbt_distribution_new_expert         76 10.1    0.001    0.002    0.050    0.055
 dbcsr_create_new                 17402  8.8    0.040    0.043    0.050    0.054
 mp_sum_im                        10889 13.0    0.044    0.053    0.044    0.053
 fm_general_add_bse_4_buf_from_       1 10.0    0.041    0.052    0.041    0.052
 mp_sum_iv                          307  9.6    0.038    0.051    0.038    0.051
 create_fast_col_vec_access        7190  8.0    0.030    0.033    0.045    0.050
 create_fast_row_vec_access        7190  8.0    0.030    0.033    0.046    0.049
 array2fm_fill                        4  8.0    0.013    0.021    0.025    0.047
 abc_contract                      7710  9.0    0.017    0.046    0.017    0.046
 mixing_init                          1  5.0    0.041    0.044    0.044    0.045
 dbm_reserve_blocks                  66 14.0    0.040    0.045    0.040    0.045
 mp_alltoall_i                       39 13.9    0.031    0.044    0.031    0.044
 get_multipoles_mo                    1 10.0    0.000    0.000    0.039    0.041
 mp_comm_split_direct                48 14.5    0.028    0.039    0.028    0.039
 cp_fm_create                       349  7.8    0.025    0.039    0.025    0.039
 mp_maxloc_dv                      1533  1.0    0.035    0.038    0.035    0.038
 multiply_cannon_multrec           2596 11.1    0.023    0.037    0.023    0.038
 pw_grid_distribute                   4  8.0    0.010    0.011    0.021    0.037
 mp_irecv_dv                      21671 11.9    0.023    0.037    0.023    0.037
 dbcsr_sym_matrix_vector_mult_l    3595  8.0    0.015    0.026    0.026    0.037
 dbt_tas_distribution_new            94 11.8    0.024    0.024    0.036    0.037
 self_consistency_check              66  5.0    0.000    0.000    0.025    0.035
 dbcsr_scale_anytype               5445  9.0    0.010    0.011    0.027    0.035
 mp_wait                            130  9.0    0.012    0.035    0.012    0.035
 cp_sm_mix                           66  6.0    0.000    0.001    0.025    0.035
 mp_max_d                            68  6.9    0.025    0.035    0.025    0.035
 multiply_cannon_metrocomm3        2596 11.1    0.004    0.005    0.019    0.034
 array2fm_buffer_send                 4  8.0    0.028    0.034    0.028    0.034
 cube_transpose_2                   134 11.0    0.003    0.003    0.028    0.033
 mp_cart_rank                    113700 11.0    0.025    0.033    0.025    0.033
 dbcsr_work_create                 6652 10.5    0.004    0.022    0.006    0.032
 ao_to_mo_and_store_B_mult_gw_1       5  7.0    0.000    0.000    0.022    0.031
 make_images_data                   222 11.1    0.003    0.003    0.021    0.031
 write_mo_set_to_restart             66  5.0    0.001    0.009    0.012    0.031
 dbcsr_work_destroy_all            6652 11.4    0.004    0.022    0.005    0.031
 Q_trace_and_add_unit_matrix        100  8.0    0.001    0.001    0.020    0.031
 dbt_tas_reserve_blocks_index        58 12.9    0.001    0.001    0.026    0.030
 mp2_main_free_hfx                    1  4.0    0.012    0.030    0.012    0.030
 make_images_sizes                  222 11.1    0.000    0.000    0.025    0.029
 mp_alltoall_i44                    222 12.1    0.025    0.028    0.025    0.028
 calc_fm_mat_S_rpa                  100  9.0    0.014    0.028    0.014    0.028
 hirshfeld_integration                1  6.0    0.001    0.006    0.028    0.028
 write_mo_set_low                     4  6.0    0.000    0.000    0.011    0.028
 cp_fm_write_unformatted              4  7.0    0.010    0.020    0.011    0.028
 get_2c_integrals                     1  6.0    0.000    0.000    0.026    0.027
 ao_to_mo_and_store_B_E_Ex_gw_1       5  7.0    0.007    0.012    0.019    0.027
 cube_transpose_1                   134 14.0    0.002    0.003    0.024    0.027
 dbt_reserve_blocks_index            36 10.8    0.001    0.001    0.023    0.027
 print_transition_amplitudes          1 10.0    0.000    0.000    0.027    0.027
 print_transition_amplitudes_co      50 11.0    0.000    0.001    0.027    0.027
 filter_eigvec_contrib               50 12.0    0.016    0.016    0.026    0.027
 dbcsr_crop_matrix                  330 10.0    0.002    0.002    0.024    0.026
 truncate_BSE_matrices                1  8.0    0.000    0.000    0.016    0.026
 allocate_matrices_gw                 1  7.0    0.000    0.000    0.018    0.026
 cp_dbcsr_sm_fm_multiply              3 11.0    0.000    0.000    0.025    0.026
 dbt_create_new                      40  9.5    0.001    0.001    0.025    0.026
 dbt_split_copyback                   4 10.0    0.015    0.019    0.020    0.026
 sort_shells                          4  9.0    0.024    0.025    0.024    0.025
 dbcsr_data_release               87036 10.0    0.015    0.025    0.015    0.025
 get_vec_sigma_x                      1  8.0    0.000    0.000    0.016    0.025
 mp_bcast_iv_src                    304  7.0    0.012    0.025    0.012    0.025
 array2fm_waitall                     4  8.0    0.000    0.000    0.004    0.024
 multiply_cannon_metrocomm1        2596 11.1    0.003    0.003    0.013    0.024
 dbt_reserve_blocks_index_array      28 10.6    0.000    0.000    0.020    0.024
 calculate_hirshfeld_normalizat       1  6.0    0.001    0.006    0.022    0.023
 ao_to_mo_and_store_B_mult_bse_       5  7.0    0.000    0.000    0.018    0.023
 dbcsr_iterator_seek              44190  9.8    0.009    0.022    0.009    0.022
 reshape_mm_small                     8 13.5    0.002    0.002    0.020    0.021
 dbcsr_copy_submatrix               330 11.0    0.003    0.003    0.018    0.020
 mp_allgather_i34                   111 10.1    0.017    0.020    0.017    0.020
 mp_cart_sub                        200  8.6    0.019    0.020    0.019    0.020
 fm_general_add_bse_6_buffer_to       1 10.0    0.013    0.020    0.013    0.020
 dbt_tas_replicate_alltoall           6 14.5    0.000    0.000    0.012    0.020
 dbcsr_set                        14843  8.5    0.013    0.014    0.017    0.019
 fm_general_add_bse_2_comm_entr       5 11.2    0.000    0.000    0.013    0.019
 multiply_cannon_metrocomm4        2414 11.1    0.007    0.008    0.015    0.019
 mp_bcast_av                        767  1.0    0.006    0.009    0.014    0.019
 fm_general_add_bse_3_alloc_buf       5 11.2    0.010    0.018    0.010    0.018
 dbt_tas_create_split                44 13.2    0.000    0.000    0.018    0.018
 -------------------------------------------------------------------------------

 The number of warnings for this run is : 1
 
 -------------------------------------------------------------------------------
  **** **** ******  **  PROGRAM ENDED AT                 2025-03-30 20:27:03.559
 ***** ** ***  *** **   PROGRAM RAN ON                              i04r04c05s05
 **    ****   ******    PROGRAM RAN BY                                   di38fab
 ***** **    ** ** **   PROGRAM PROCESS ID                               2214456
  **** **  *******  **  PROGRAM STOPPED IN /hppfs/scratch/04/di38fab/07_MOL_non_
                                           aug/05_MOL_non_aug/05_MOL/aUKBqsEOTmq
                                           69kFe5R_nOg/5k_set_final_qzvp/GAQCAE/
                                           cc-pVTZ/GW+BSE
