SIRIUS 7.6.1, git hash: https://api.github.com/repos/electronic-structure/SIRIUS/git/ref/tags/v7.6.1
 DBCSR| CPU Multiplication driver                                           XSMM (U)
 DBCSR| Multrec recursion limit                                              512 (U)
 DBCSR| Multiplication stack size                                           1000 (D)
 DBCSR| Maximum elements for images                                    UNLIMITED (U)
 DBCSR| Multiplicative factor virtual images                                   1 (U)
 DBCSR| Use multiplication densification                                       T (D)
 DBCSR| Multiplication size stacks                                             3 (U)
 DBCSR| Use memory pool for CPU allocation                                     F (U)
 DBCSR| Number of 3D layers                                               SINGLE (U)
 DBCSR| Use MPI memory allocation                                              F (U)
 DBCSR| Use RMA algorithm                                                      F (U)
 DBCSR| Use Communication thread                                               T (U)
 DBCSR| Communication thread load                                             60 (D)
 DBCSR| MPI: My process id                                                     0
 DBCSR| MPI: Number of processes                                              80
 DBCSR| OMP: Current number of threads                                         8
 DBCSR| OMP: Max number of threads                                             8
 DBCSR| Split modifier for TAS multiplication algorithm                  1.0E+00 (U)


  **** **** ******  **  PROGRAM STARTED AT               2025-05-05 02:53:59.030
 ***** ** ***  *** **   PROGRAM STARTED ON                 n2cn0308.ab2021.local
 **    ****   ******    PROGRAM STARTED BY                              metdyn02
 ***** **    ** ** **   PROGRAM PROCESS ID                               2380628
  **** **  *******  **  PROGRAM STARTED IN /scratch/hpc-prf-metdyn/metdyn02_Remi
                                           /10_MOL/05_MOL/aUKBqsEOTmq69kFe5R_nOg
                                           /5k_set_final_qzvp/XTBCOC/SZV/GW+BSE/
                                           RILIM

 CP2K| version string:                 CP2K version 2025.1 (Development Version)
 CP2K| source code revision number:                                  git:4803c37
 CP2K| cp2kflags: omp libint fftw3 libxc libgrpp elpa parallel scalapack mpi_f08
 CP2K|             cosma xsmm plumed2 spglib sirius libvori libbqb libvdwxc hdf5
 CP2K| is freely available from                            https://www.cp2k.org/
 CP2K| Program compiled at                         Thu Apr 10 12:05:05 CEST 2025
 CP2K| Program compiled on                                              n2login1
 CP2K| Program compiled for                                                local
 CP2K| Data directory path    /opt/software/pc2/EB-SW/software/CP2K/2024.1-foss-
 CP2K| Input file name                                                    GW.inp

 GLOBAL| Force Environment number                                              1
 GLOBAL| Basis set file name            /scratch/hpc-prf-metdyn/metdyn02_Remi/BA
 GLOBAL| Potential file name            /pc2/groups/hpc-prf-metdyn/metdyn02_Remi
 GLOBAL| MM Potential file name                                     MM_POTENTIAL
 GLOBAL| Coordinate file name                                      __STD_INPUT__
 GLOBAL| Method name                                                        CP2K
 GLOBAL| Project name                                                       MoS2
 GLOBAL| Run type                                                         ENERGY
 GLOBAL| FFT library                                                       FFTW3
 GLOBAL| Diagonalization library                                            ELPA
 GLOBAL| DGEMM library                                                      BLAS
 GLOBAL| Minimum number of eigenvectors for ELPA usage                        16
 GLOBAL| Orthonormality check for eigenvectors                          DISABLED
 GLOBAL| Matrix multiplication library                                     COSMA
 GLOBAL| All-to-all communication in single precision                          F
 GLOBAL| FFTs using library dependent lengths                                  F
 GLOBAL| Grid backend                                                       AUTO
 GLOBAL| Global print level                                               MEDIUM
 GLOBAL| MPI I/O enabled                                                       T
 GLOBAL| Total number of message passing processes                            80
 GLOBAL| Number of threads for this process                                    8
 GLOBAL| This output is from process                                           0
 GLOBAL| OpenMP stack size per thread (OMP_STACKSIZE)                    default
 GLOBAL| CPU model name                          AMD EPYC 7763 64-Core Processor
 GLOBAL| CPUID                                                              1002

 MEMORY| system memory details [Kb]
 MEMORY|                        rank 0           min           max       average
 MEMORY| MemTotal            263899260     263899252     263899264     263899261
 MEMORY| MemFree             250096448     248275872     252193412     250703803
 MEMORY| Buffers                138848         31596        295384        129315
 MEMORY| Cached                5802440       4936128       7717900       6018542
 MEMORY| Slab                  2943592       1901840       2943592       2315510
 MEMORY| SReclaimable           947864        275600        947864        429069
 MEMORY| MemLikelyFree       256985600     256695716     258517776     257280730


 *** Fundamental physical constants (SI units) ***

 *** Literature: B. J. Mohr and B. N. Taylor,
 ***             CODATA recommended values of the fundamental physical
 ***             constants: 2006, Web Version 5.1
 ***             http://physics.nist.gov/constants

 Speed of light in vacuum [m/s]                             2.99792458000000E+08
 Magnetic constant or permeability of vacuum [N/A**2]       1.25663706143592E-06
 Electric constant or permittivity of vacuum [F/m]          8.85418781762039E-12
 Planck constant (h) [J*s]                                  6.62606896000000E-34
 Planck constant (h-bar) [J*s]                              1.05457162825177E-34
 Elementary charge [C]                                      1.60217648700000E-19
 Electron mass [kg]                                         9.10938215000000E-31
 Electron g factor [ ]                                     -2.00231930436220E+00
 Proton mass [kg]                                           1.67262163700000E-27
 Fine-structure constant                                    7.29735253760000E-03
 Rydberg constant [1/m]                                     1.09737315685270E+07
 Avogadro constant [1/mol]                                  6.02214179000000E+23
 Boltzmann constant [J/K]                                   1.38065040000000E-23
 Atomic mass unit [kg]                                      1.66053878200000E-27
 Bohr radius [m]                                            5.29177208590000E-11

 *** Conversion factors ***

 [u] -> [a.u.]                                              1.82288848426455E+03
 [Angstrom] -> [Bohr] = [a.u.]                              1.88972613288564E+00
 [a.u.] = [Bohr] -> [Angstrom]                              5.29177208590000E-01
 [a.u.] -> [s]                                              2.41888432650478E-17
 [a.u.] -> [fs]                                             2.41888432650478E-02
 [a.u.] -> [J]                                              4.35974393937059E-18
 [a.u.] -> [N]                                              8.23872205491840E-08
 [a.u.] -> [K]                                              3.15774647902944E+05
 [a.u.] -> [kJ/mol]                                         2.62549961709828E+03
 [a.u.] -> [kcal/mol]                                       6.27509468713739E+02
 [a.u.] -> [Pa]                                             2.94210107994716E+13
 [a.u.] -> [bar]                                            2.94210107994716E+08
 [a.u.] -> [atm]                                            2.90362800883016E+08
 [a.u.] -> [eV]                                             2.72113838565563E+01
 [a.u.] -> [Hz]                                             6.57968392072181E+15
 [a.u.] -> [1/cm] (wave numbers)                            2.19474631370540E+05
 [a.u./Bohr**2] -> [1/cm]                                   5.14048714338585E+03
 

 CELL_TOP| Volume [angstrom^3]:                                     27000.000000
 CELL_TOP| Vector a [angstrom    30.000     0.000     0.000   |a| =    30.000000
 CELL_TOP| Vector b [angstrom     0.000    30.000     0.000   |b| =    30.000000
 CELL_TOP| Vector c [angstrom     0.000     0.000    30.000   |c| =    30.000000
 CELL_TOP| Angle (b,c), alpha [degree]:                                90.000000
 CELL_TOP| Angle (a,c), beta  [degree]:                                90.000000
 CELL_TOP| Angle (a,b), gamma [degree]:                                90.000000
 CELL_TOP| Numerically orthorhombic:                                         YES
 CELL_TOP| Periodicity                                                      NONE

 GENERATE|  Preliminary Number of Bonds generated:                             0
 GENERATE|  Achieved consistency in connectivity generation.

 CELL| Volume [angstrom^3]:                                         27000.000000
 CELL| Vector a [angstrom]:      30.000     0.000     0.000   |a| =    30.000000
 CELL| Vector b [angstrom]:       0.000    30.000     0.000   |b| =    30.000000
 CELL| Vector c [angstrom]:       0.000     0.000    30.000   |c| =    30.000000
 CELL| Angle (b,c), alpha [degree]:                                    90.000000
 CELL| Angle (a,c), beta  [degree]:                                    90.000000
 CELL| Angle (a,b), gamma [degree]:                                    90.000000
 CELL| Numerically orthorhombic:                                             YES
 CELL| Periodicity                                                          NONE

 CELL_REF| Volume [angstrom^3]:                                     27000.000000
 CELL_REF| Vector a [angstrom    30.000     0.000     0.000   |a| =    30.000000
 CELL_REF| Vector b [angstrom     0.000    30.000     0.000   |b| =    30.000000
 CELL_REF| Vector c [angstrom     0.000     0.000    30.000   |c| =    30.000000
 CELL_REF| Angle (b,c), alpha [degree]:                                90.000000
 CELL_REF| Angle (a,c), beta  [degree]:                                90.000000
 CELL_REF| Angle (a,b), gamma [degree]:                                90.000000
 CELL_REF| Numerically orthorhombic:                                         YES
 CELL_REF| Periodicity                                                      NONE

 *******************************************************************************
 *******************************************************************************
 **                                                                           **
 **     #####                         ##              ##                      **
 **    ##   ##            ##          ##              ##                      **
 **   ##     ##                       ##            ######                    **
 **   ##     ##  ##   ##  ##   #####  ##  ##   ####   ##    #####    #####    **
 **   ##     ##  ##   ##  ##  ##      ## ##   ##      ##   ##   ##  ##   ##   **
 **   ##  ## ##  ##   ##  ##  ##      ####     ###    ##   ######   ######    **
 **    ##  ###   ##   ##  ##  ##      ## ##      ##   ##   ##       ##        **
 **     #######   #####   ##   #####  ##  ##  ####    ##    #####   ##        **
 **           ##                                                    ##        **
 **                                                                           **
 **                                                ... make the atoms dance   **
 **                                                                           **
 **            Copyright (C) by CP2K developers group (2000-2025)             **
 **                      J. Chem. Phys. 152, 194103 (2020)                    **
 **                                                                           **
 *******************************************************************************

 DFT| Spin restricted Kohn-Sham (RKS) calculation                            RKS
 DFT| Multiplicity                                                             1
 DFT| Number of spin states                                                    1
 DFT| Charge                                                                   0
 DFT| Self-interaction correction (SIC)                                       NO
 DFT| Cutoffs: density                                              1.000000E-10
 DFT|          gradient                                             1.000000E-10
 DFT|          tau                                                  1.000000E-10
 DFT|          cutoff_smoothing_range                               0.000000E+00
 DFT| XC density smoothing                                                  NONE
 DFT| XC derivatives                                                          PW

 FUNCTIONAL| PBE:
 FUNCTIONAL| J.P.Perdew, K.Burke, M.Ernzerhof, Phys. Rev. Letter, vol. 77, n 18,
 FUNCTIONAL|  pp. 3865-3868, (1996)sx=0.750sc=1.000{spin unpolarized}           


 QS| Method:                                                                GAPW
 QS| Density plane wave grid type                        NON-SPHERICAL FULLSPACE
 QS| Number of grid levels:                                                    4
 QS| Density cutoff [a.u.]:                                                250.0
 QS| Multi grid cutoff [a.u.]: 1) grid level                               250.0
 QS|                           2) grid level                                83.3
 QS|                           3) grid level                                27.8
 QS|                           4) grid level                                 9.3
 QS| Grid level progression factor:                                          3.0
 QS| Relative density cutoff [a.u.]:                                        50.0
 QS| Interaction thresholds: eps_pgf_orb:                                1.0E-12
 QS|                         eps_filter_matrix:                          0.0E+00
 QS|                         eps_core_charge:                            1.0E-14
 QS|                         eps_rho_gspace:                             1.0E-12
 QS|                         eps_rho_rspace:                             1.0E-12
 QS|                         eps_gvg_rspace:                             1.0E-06
 QS|                         eps_ppl:                                    1.0E-02
 QS|                         eps_ppnl:                                   1.0E-08
 QS| GAPW|      One center basis from orbital basis primitives
 QS| GAPW|                   eps_fit:                                    1.0E-04
 QS| GAPW|                   eps_iso:                                    1.0E-12
 QS| GAPW|                   eps_svd:                                    1.0E-08
 QS| GAPW|                   eps_cpc:                                    1.0E-12
 QS| GAPW|   atom-r-grid: quadrature:                                     GC_LOG
 QS| GAPW|      atom-s-grid:  max l :                                          4
 QS| GAPW|      max_l_rho0 :                                                   2


 ATOMIC KIND INFORMATION

  1. Atomic kind: O                                     Number of atoms:       2

     Orbital Basis Set                                         aug-SZV-MOLOPT-ae

       Number of orbital shell sets:                                           2
       Number of orbital shells:                                               6
       Number of primitive Cartesian functions:                               13
       Number of Cartesian basis functions:                                   15
       Number of spherical basis functions:                                   14
       Norm type:                                                              2

       Normalised Cartesian orbitals:

                        Set   Shell   Orbital            Exponent    Coefficient

                          1       1    1s                0.123000       0.000000
                                                         0.245881       0.059902
                                                         0.536420       0.265853
                                                         1.235135       0.208956
                                                         3.210345      -0.057750
                                                        10.329320      -0.192968
                                                        52.187762      -0.183398

                          1       2    2s                0.123000      -0.253465
                                                         0.245881       0.187097
                                                         0.536420       0.063592
                                                         1.235135       0.074938
                                                         3.210345       0.000000
                                                        10.329320       0.000000
                                                        52.187762       0.000000

                          1       3    2px               0.123000       0.000000
                                                         0.245881       0.025102
                                                         0.536420       0.278668
                                                         1.235135       0.775885
                                                         3.210345       1.065175
                                                        10.329320       0.994565
                                                        52.187762       0.751716
                          1       3    2py               0.123000       0.000000
                                                         0.245881       0.025102
                                                         0.536420       0.278668
                                                         1.235135       0.775885
                                                         3.210345       1.065175
                                                        10.329320       0.994565
                                                        52.187762       0.751716
                          1       3    2pz               0.123000       0.000000
                                                         0.245881       0.025102
                                                         0.536420       0.278668
                                                         1.235135       0.775885
                                                         3.210345       1.065175
                                                        10.329320       0.994565
                                                        52.187762       0.751716

                          1       4    3px               0.123000       0.048536
                                                         0.245881       0.257066
                                                         0.536420      -0.539300
                                                         1.235135      -0.153605
                                                         3.210345       0.000000
                                                        10.329320       0.000000
                                                        52.187762       0.000000
                          1       4    3py               0.123000       0.048536
                                                         0.245881       0.257066
                                                         0.536420      -0.539300
                                                         1.235135      -0.153605
                                                         3.210345       0.000000
                                                        10.329320       0.000000
                                                        52.187762       0.000000
                          1       4    3pz               0.123000       0.048536
                                                         0.245881       0.257066
                                                         0.536420      -0.539300
                                                         1.235135      -0.153605
                                                         3.210345       0.000000
                                                        10.329320       0.000000
                                                        52.187762       0.000000

                          1       5    3dx2              0.123000       0.022065
                                                         0.245881       0.038414
                                                         0.536420       0.100211
                                                         1.235135       0.626583
                                                         3.210345       0.000000
                                                        10.329320       0.000000
                                                        52.187762       0.000000
                          1       5    3dxy              0.123000       0.038217
                                                         0.245881       0.066534
                                                         0.536420       0.173571
                                                         1.235135       1.085274
                                                         3.210345       0.000000
                                                        10.329320       0.000000
                                                        52.187762       0.000000
                          1       5    3dxz              0.123000       0.038217
                                                         0.245881       0.066534
                                                         0.536420       0.173571
                                                         1.235135       1.085274
                                                         3.210345       0.000000
                                                        10.329320       0.000000
                                                        52.187762       0.000000
                          1       5    3dy2              0.123000       0.022065
                                                         0.245881       0.038414
                                                         0.536420       0.100211
                                                         1.235135       0.626583
                                                         3.210345       0.000000
                                                        10.329320       0.000000
                                                        52.187762       0.000000
                          1       5    3dyz              0.123000       0.038217
                                                         0.245881       0.066534
                                                         0.536420       0.173571
                                                         1.235135       1.085274
                                                         3.210345       0.000000
                                                        10.329320       0.000000
                                                        52.187762       0.000000
                          1       5    3dz2              0.123000       0.022065
                                                         0.245881       0.038414
                                                         0.536420       0.100211
                                                         1.235135       0.626583
                                                         3.210345       0.000000
                                                        10.329320       0.000000
                                                        52.187762       0.000000

                          2       1    1s             1355.584234       1.459053
                                                       248.544885       2.202176
                                                        69.533902       2.892385
                                                        23.886772       2.853580
                                                         9.275933       1.577736
                                                         3.820341       0.253831

     RI Auxiliary Basis Set             RI_aug-SZV-MOLOPT-ae_N_RI_108_s_p_d_f_g_

       Number of orbital shell sets:                                          26
       Number of orbital shells:                                              26
       Number of primitive Cartesian functions:                               26
       Number of Cartesian basis functions:                                  141
       Number of spherical basis functions:                                  108
       Norm type:                                                              2

       Normalised Cartesian orbitals:

                        Set   Shell   Orbital            Exponent    Coefficient

                          1       1   14dx2              0.306613       0.207943
                          1       1   14dxy              0.306613       0.360167
                          1       1   14dxz              0.306613       0.360167
                          1       1   14dy2              0.306613       0.207943
                          1       1   14dyz              0.306613       0.360167
                          1       1   14dz2              0.306613       0.207943

                          2       1    1s                0.344489       0.320473

                          3       1    8px               0.347988       0.380975
                          3       1    8py               0.347988       0.380975
                          3       1    8pz               0.347988       0.380975

                          4       1   20fx3              0.454212       0.249336
                          4       1   20fx2y             0.454212       0.557533
                          4       1   20fx2z             0.454212       0.557533
                          4       1   20fxy2             0.454212       0.557533
                          4       1   20fxyz             0.454212       0.965675
                          4       1   20fxz2             0.454212       0.557533
                          4       1   20fy3              0.454212       0.249336
                          4       1   20fy2z             0.454212       0.557533
                          4       1   20fyz2             0.454212       0.557533
                          4       1   20fz3              0.454212       0.249336

                          5       1   15dx2              0.712723       0.909957
                          5       1   15dxy              0.712723       1.576091
                          5       1   15dxz              0.712723       1.576091
                          5       1   15dy2              0.712723       0.909957
                          5       1   15dyz              0.712723       1.576091
                          5       1   15dz2              0.712723       0.909957

                          6       1   25gx4              0.825424       0.656594
                          6       1   25gx3y             0.825424       1.737185
                          6       1   25gx3z             0.825424       1.737185
                          6       1   25gx2y2            0.825424       2.242696
                          6       1   25gx2yz            0.825424       3.884463
                          6       1   25gx2z2            0.825424       2.242696
                          6       1   25gxy3             0.825424       1.737185
                          6       1   25gxy2z            0.825424       3.884463
                          6       1   25gxyz2            0.825424       3.884463
                          6       1   25gxz3             0.825424       1.737185
                          6       1   25gy4              0.825424       0.656594
                          6       1   25gy3z             0.825424       1.737185
                          6       1   25gy2z2            0.825424       2.242696
                          6       1   25gyz3             0.825424       1.737185
                          6       1   25gz4              0.825424       0.656594

                          7       1    2s                0.909156       0.663573

                          8       1    9px               1.235620       1.856932
                          8       1    9py               1.235620       1.856932
                          8       1    9pz               1.235620       1.856932

                          9       1   21fx3              1.369813       2.988427
                          9       1   21fx2y             1.369813       6.682325
                          9       1   21fx2z             1.369813       6.682325
                          9       1   21fxy2             1.369813       6.682325
                          9       1   21fxyz             1.369813      11.574126
                          9       1   21fxz2             1.369813       6.682325
                          9       1   21fy3              1.369813       2.988427
                          9       1   21fy2z             1.369813       6.682325
                          9       1   21fyz2             1.369813       6.682325
                          9       1   21fz3              1.369813       2.988427

                         10       1   16dx2              1.682193       4.089708
                         10       1   16dxy              1.682193       7.083581
                         10       1   16dxz              1.682193       7.083581
                         10       1   16dy2              1.682193       4.089708
                         10       1   16dyz              1.682193       7.083581
                         10       1   16dz2              1.682193       4.089708

                         11       1   22fx3              2.922147      16.435541
                         11       1   22fx2y             2.922147      36.750987
                         11       1   22fx2z             2.922147      36.750987
                         11       1   22fxy2             2.922147      36.750987
                         11       1   22fxyz             2.922147      63.654576
                         11       1   22fxz2             2.922147      36.750987
                         11       1   22fy3              2.922147      16.435541
                         11       1   22fy2z             2.922147      36.750987
                         11       1   22fyz2             2.922147      36.750987
                         11       1   22fz3              2.922147      16.435541

                         12       1    3s                3.109771       1.669000

                         13       1   10px               3.642025       7.171645
                         13       1   10py               3.642025       7.171645
                         13       1   10pz               3.642025       7.171645

                         14       1   17dx2              3.962369      18.315995
                         14       1   17dxy              3.962369      31.724235
                         14       1   17dxz              3.962369      31.724235
                         14       1   17dy2              3.962369      18.315995
                         14       1   17dyz              3.962369      31.724235
                         14       1   17dz2              3.962369      18.315995

                         15       1   23fx3              6.445669      97.455743
                         15       1   23fx2y             6.445669     217.917667
                         15       1   23fx2z             6.445669     217.917667
                         15       1   23fxy2             6.445669     217.917667
                         15       1   23fxyz             6.445669     377.444471
                         15       1   23fxz2             6.445669     217.917667
                         15       1   23fy3              6.445669      97.455743
                         15       1   23fy2z             6.445669     217.917667
                         15       1   23fyz2             6.445669     217.917667
                         15       1   23fz3              6.445669      97.455743

                         16       1   26gx4              7.012613     235.833288
                         16       1   26gx3y             7.012613     623.956231
                         16       1   26gx3z             7.012613     623.956231
                         16       1   26gx2y2            7.012613     805.524031
                         16       1   26gx2yz            7.012613    1395.208548
                         16       1   26gx2z2            7.012613     805.524031
                         16       1   26gxy3             7.012613     623.956231
                         16       1   26gxy2z            7.012613    1395.208548
                         16       1   26gxyz2            7.012613    1395.208548
                         16       1   26gxz3             7.012613     623.956231
                         16       1   26gy4              7.012613     235.833288
                         16       1   26gy3z             7.012613     623.956231
                         16       1   26gy2z2            7.012613     805.524031
                         16       1   26gyz3             7.012613     623.956231
                         16       1   26gz4              7.012613     235.833288

                         17       1   18dx2              9.333359      82.030607
                         17       1   18dxy              9.333359     142.081180
                         17       1   18dxz              9.333359     142.081180
                         17       1   18dy2              9.333359      82.030607
                         17       1   18dyz              9.333359     142.081180
                         17       1   18dz2              9.333359      82.030607

                         18       1   11px              10.769589      27.809233
                         18       1   11py              10.769589      27.809233
                         18       1   11pz              10.769589      27.809233

                         19       1    4s               11.034999       4.315085

                         20       1   24fx3             14.084207     565.721044
                         20       1   24fx2y            14.084207    1264.990710
                         20       1   24fx2z            14.084207    1264.990710
                         20       1   24fxy2            14.084207    1264.990710
                         20       1   24fxyz            14.084207    2191.028181
                         20       1   24fxz2            14.084207    1264.990710
                         20       1   24fy3             14.084207     565.721044
                         20       1   24fy2z            14.084207    1264.990710
                         20       1   24fyz2            14.084207    1264.990710
                         20       1   24fz3             14.084207     565.721044

                         21       1   19dx2             21.988080     367.482999
                         21       1   19dxy             21.988080     636.499225
                         21       1   19dxz             21.988080     636.499225
                         21       1   19dy2             21.988080     367.482999
                         21       1   19dyz             21.988080     636.499225
                         21       1   19dz2             21.988080     367.482999

                         22       1   12px              31.865013     107.915221
                         22       1   12py              31.865013     107.915221
                         22       1   12pz              31.865013     107.915221

                         23       1    5s               39.101020      11.144258

                         24       1   13px              94.252624     418.607400
                         24       1   13py              94.252624     418.607400
                         24       1   13pz              94.252624     418.607400

                         25       1    6s              138.234610      28.732452

                         26       1    7s              488.527053      74.058780

       Atomic covalent radius [Angstrom]:                                  0.730

       Atomic van der Waals radius [Angstrom]:                             1.520

     The atoms of this atomic kind are PAW atoms (GAPW):
       Hard Gaussian function radius:                                      1.512
       Rho0 radius:                                                        1.512
       Maximum GTO radius used for PAW projector construction:            24.566

     GAPW Soft Basis Set                                  aug-SZV-MOLOPT-ae_soft

       Number of orbital shell sets:                                           2
       Number of orbital shells:                                               6
       Number of primitive Cartesian functions:                                6
       Number of Cartesian basis functions:                                   15
       Number of spherical basis functions:                                   14
       Norm type:                                                              2

       Normalised Cartesian orbitals:

                        Set   Shell   Orbital            Exponent    Coefficient

                          1       1    1s                0.123000       0.000000
                                                         0.245881       0.059902
                                                         0.536420       0.265853
                                                         1.235135       0.208956
                                                         3.210345      -0.057750

                          1       2    2s                0.123000      -0.253465
                                                         0.245881       0.187097
                                                         0.536420       0.063592
                                                         1.235135       0.074938
                                                         3.210345       0.000000

                          1       3    2px               0.123000       0.000000
                                                         0.245881       0.025102
                                                         0.536420       0.278668
                                                         1.235135       0.775885
                                                         3.210345       1.065175
                          1       3    2py               0.123000       0.000000
                                                         0.245881       0.025102
                                                         0.536420       0.278668
                                                         1.235135       0.775885
                                                         3.210345       1.065175
                          1       3    2pz               0.123000       0.000000
                                                         0.245881       0.025102
                                                         0.536420       0.278668
                                                         1.235135       0.775885
                                                         3.210345       1.065175

                          1       4    3px               0.123000       0.048536
                                                         0.245881       0.257066
                                                         0.536420      -0.539300
                                                         1.235135      -0.153605
                                                         3.210345       0.000000
                          1       4    3py               0.123000       0.048536
                                                         0.245881       0.257066
                                                         0.536420      -0.539300
                                                         1.235135      -0.153605
                                                         3.210345       0.000000
                          1       4    3pz               0.123000       0.048536
                                                         0.245881       0.257066
                                                         0.536420      -0.539300
                                                         1.235135      -0.153605
                                                         3.210345       0.000000

                          1       5    3dx2              0.123000       0.022065
                                                         0.245881       0.038414
                                                         0.536420       0.100211
                                                         1.235135       0.626583
                                                         3.210345       0.000000
                          1       5    3dxy              0.123000       0.038217
                                                         0.245881       0.066534
                                                         0.536420       0.173571
                                                         1.235135       1.085274
                                                         3.210345       0.000000
                          1       5    3dxz              0.123000       0.038217
                                                         0.245881       0.066534
                                                         0.536420       0.173571
                                                         1.235135       1.085274
                                                         3.210345       0.000000
                          1       5    3dy2              0.123000       0.022065
                                                         0.245881       0.038414
                                                         0.536420       0.100211
                                                         1.235135       0.626583
                                                         3.210345       0.000000
                          1       5    3dyz              0.123000       0.038217
                                                         0.245881       0.066534
                                                         0.536420       0.173571
                                                         1.235135       1.085274
                                                         3.210345       0.000000
                          1       5    3dz2              0.123000       0.022065
                                                         0.245881       0.038414
                                                         0.536420       0.100211
                                                         1.235135       0.626583
                                                         3.210345       0.000000

                          2       1    1s                3.820341       0.253831

     AE Potential information for                                            ALL

       Description:                                       All-electron potential
                                          Krack, Parrinello, PCCP 2, 2105 (2000)

       Gaussian exponent of the core charge distribution:               8.154466
       Electronic configuration (s p d ...):                           4   4   0

  2. Atomic kind: C                                     Number of atoms:       6

     Orbital Basis Set                                         aug-SZV-MOLOPT-ae

       Number of orbital shell sets:                                           2
       Number of orbital shells:                                               6
       Number of primitive Cartesian functions:                               13
       Number of Cartesian basis functions:                                   15
       Number of spherical basis functions:                                   14
       Norm type:                                                              2

       Normalised Cartesian orbitals:

                        Set   Shell   Orbital            Exponent    Coefficient

                          1       1    2s                0.070000       0.000000
                                                         0.143687       0.040037
                                                         0.313471       0.177689
                                                         0.721783       0.139661
                                                         1.876046      -0.038599
                                                         6.036200      -0.128975
                                                        30.497239      -0.122578

                          1       2    3s                0.070000      -0.142268
                                                         0.143687       0.288819
                                                         0.313471       0.010360
                                                         0.721783       0.175994
                                                         1.876046       0.000000
                                                         6.036200       0.000000
                                                        30.497239       0.000000

                          1       3    3px               0.070000       0.000000
                                                         0.143687       0.012825
                                                         0.313471       0.142381
                                                         0.721783       0.396426
                                                         1.876046       0.544234
                                                         6.036200       0.508157
                                                        30.497239       0.384077
                          1       3    3py               0.070000       0.000000
                                                         0.143687       0.012825
                                                         0.313471       0.142381
                                                         0.721783       0.396426
                                                         1.876046       0.544234
                                                         6.036200       0.508157
                                                        30.497239       0.384077
                          1       3    3pz               0.070000       0.000000
                                                         0.143687       0.012825
                                                         0.313471       0.142381
                                                         0.721783       0.396426
                                                         1.876046       0.544234
                                                         6.036200       0.508157
                                                        30.497239       0.384077

                          1       4    4px               0.070000       0.076505
                                                         0.143687      -0.086104
                                                         0.313471       0.010230
                                                         0.721783       0.129894
                                                         1.876046       0.000000
                                                         6.036200       0.000000
                                                        30.497239       0.000000
                          1       4    4py               0.070000       0.076505
                                                         0.143687      -0.086104
                                                         0.313471       0.010230
                                                         0.721783       0.129894
                                                         1.876046       0.000000
                                                         6.036200       0.000000
                                                        30.497239       0.000000
                          1       4    4pz               0.070000       0.076505
                                                         0.143687      -0.086104
                                                         0.313471       0.010230
                                                         0.721783       0.129894
                                                         1.876046       0.000000
                                                         6.036200       0.000000
                                                        30.497239       0.000000

                          1       5    4dx2              0.070000       0.004316
                                                         0.143687       0.012639
                                                         0.313471       0.125057
                                                         0.721783       0.080411
                                                         1.876046       0.000000
                                                         6.036200       0.000000
                                                        30.497239       0.000000
                          1       5    4dxy              0.070000       0.007476
                                                         0.143687       0.021892
                                                         0.313471       0.216606
                                                         0.721783       0.139276
                                                         1.876046       0.000000
                                                         6.036200       0.000000
                                                        30.497239       0.000000
                          1       5    4dxz              0.070000       0.007476
                                                         0.143687       0.021892
                                                         0.313471       0.216606
                                                         0.721783       0.139276
                                                         1.876046       0.000000
                                                         6.036200       0.000000
                                                        30.497239       0.000000
                          1       5    4dy2              0.070000       0.004316
                                                         0.143687       0.012639
                                                         0.313471       0.125057
                                                         0.721783       0.080411
                                                         1.876046       0.000000
                                                         6.036200       0.000000
                                                        30.497239       0.000000
                          1       5    4dyz              0.070000       0.007476
                                                         0.143687       0.021892
                                                         0.313471       0.216606
                                                         0.721783       0.139276
                                                         1.876046       0.000000
                                                         6.036200       0.000000
                                                        30.497239       0.000000
                          1       5    4dz2              0.070000       0.004316
                                                         0.143687       0.012639
                                                         0.313471       0.125057
                                                         0.721783       0.080411
                                                         1.876046       0.000000
                                                         6.036200       0.000000
                                                        30.497239       0.000000

                          2       1    1s              742.737049       0.929185
                                                       136.180025       1.402437
                                                        38.098264       1.841991
                                                        13.087782       1.817278
                                                         5.082369       1.004768
                                                         2.093200       0.161650

     RI Auxiliary Basis Set             RI_aug-SZV-MOLOPT-ae_N_RI_048_s_p_d_f_g_

       Number of orbital shell sets:                                          14
       Number of orbital shells:                                              14
       Number of primitive Cartesian functions:                               14
       Number of Cartesian basis functions:                                   62
       Number of spherical basis functions:                                   48
       Norm type:                                                              2

       Normalised Cartesian orbitals:

                        Set   Shell   Orbital            Exponent    Coefficient

                          1       1    1s                0.182132       0.198701

                          2       1    7px               0.213594       0.206979
                          2       1    7py               0.213594       0.206979
                          2       1    7pz               0.213594       0.206979

                          3       1   10dx2              0.381125       0.304282
                          3       1   10dxy              0.381125       0.527033
                          3       1   10dxz              0.381125       0.527033
                          3       1   10dy2              0.381125       0.304282
                          3       1   10dyz              0.381125       0.527033
                          3       1   10dz2              0.381125       0.304282

                          4       1    2s                0.433905       0.381027

                          5       1   12fx3              0.524446       0.344573
                          5       1   12fx2y             0.524446       0.770488
                          5       1   12fx2z             0.524446       0.770488
                          5       1   12fxy2             0.524446       0.770488
                          5       1   12fxyz             0.524446       1.334524
                          5       1   12fxz2             0.524446       0.770488
                          5       1   12fy3              0.524446       0.344573
                          5       1   12fy2z             0.524446       0.770488
                          5       1   12fyz2             0.524446       0.770488
                          5       1   12fz3              0.524446       0.344573

                          6       1    8px               0.915857       1.277099
                          6       1    8py               0.915857       1.277099
                          6       1    8pz               0.915857       1.277099

                          7       1   14gx4              1.217666       1.912659
                          7       1   14gx3y             1.217666       5.060419
                          7       1   14gx3z             1.217666       5.060419
                          7       1   14gx2y2            1.217666       6.532973
                          7       1   14gx2yz            1.217666      11.315442
                          7       1   14gx2z2            1.217666       6.532973
                          7       1   14gxy3             1.217666       5.060419
                          7       1   14gxy2z            1.217666      11.315442
                          7       1   14gxyz2            1.217666      11.315442
                          7       1   14gxz3             1.217666       5.060419
                          7       1   14gy4              1.217666       1.912659
                          7       1   14gy3z             1.217666       5.060419
                          7       1   14gy2z2            1.217666       6.532973
                          7       1   14gyz3             1.217666       5.060419
                          7       1   14gz4              1.217666       1.912659

                          8       1   11dx2              1.581488       3.670921
                          8       1   11dxy              1.581488       6.358221
                          8       1   11dxz              1.581488       6.358221
                          8       1   11dy2              1.581488       3.670921
                          8       1   11dyz              1.581488       6.358221
                          8       1   11dz2              1.581488       3.670921

                          9       1    3s                1.620693       1.023730

                         10       1   13fx3              2.677157      13.496481
                         10       1   13fx2y             2.677157      30.179050
                         10       1   13fx2z             2.677157      30.179050
                         10       1   13fxy2             2.677157      30.179050
                         10       1   13fxyz             2.677157      52.271648
                         10       1   13fxz2             2.677157      30.179050
                         10       1   13fy3              2.677157      13.496481
                         10       1   13fy2z             2.677157      30.179050
                         10       1   13fyz2             2.677157      30.179050
                         10       1   13fz3              2.677157      13.496481

                         11       1    4s                5.999661       2.732154

                         12       1    9px               9.284861      23.102519
                         12       1    9py               9.284861      23.102519
                         12       1    9pz               9.284861      23.102519

                         13       1    5s               22.224963       7.295262

                         14       1    6s               82.329769      19.479498

       Atomic covalent radius [Angstrom]:                                  0.770

       Atomic van der Waals radius [Angstrom]:                             1.700

     The atoms of this atomic kind are PAW atoms (GAPW):
       Hard Gaussian function radius:                                      1.512
       Rho0 radius:                                                        1.512
       Maximum GTO radius used for PAW projector construction:            24.566

     GAPW Soft Basis Set                                  aug-SZV-MOLOPT-ae_soft

       Number of orbital shell sets:                                           2
       Number of orbital shells:                                               6
       Number of primitive Cartesian functions:                                6
       Number of Cartesian basis functions:                                   15
       Number of spherical basis functions:                                   14
       Norm type:                                                              2

       Normalised Cartesian orbitals:

                        Set   Shell   Orbital            Exponent    Coefficient

                          1       1    2s                0.070000       0.000000
                                                         0.143687       0.040037
                                                         0.313471       0.177689
                                                         0.721783       0.139661
                                                         1.876046      -0.038599

                          1       2    3s                0.070000      -0.142268
                                                         0.143687       0.288819
                                                         0.313471       0.010360
                                                         0.721783       0.175994
                                                         1.876046       0.000000

                          1       3    3px               0.070000       0.000000
                                                         0.143687       0.012825
                                                         0.313471       0.142381
                                                         0.721783       0.396426
                                                         1.876046       0.544234
                          1       3    3py               0.070000       0.000000
                                                         0.143687       0.012825
                                                         0.313471       0.142381
                                                         0.721783       0.396426
                                                         1.876046       0.544234
                          1       3    3pz               0.070000       0.000000
                                                         0.143687       0.012825
                                                         0.313471       0.142381
                                                         0.721783       0.396426
                                                         1.876046       0.544234

                          1       4    4px               0.070000       0.076505
                                                         0.143687      -0.086104
                                                         0.313471       0.010230
                                                         0.721783       0.129894
                                                         1.876046       0.000000
                          1       4    4py               0.070000       0.076505
                                                         0.143687      -0.086104
                                                         0.313471       0.010230
                                                         0.721783       0.129894
                                                         1.876046       0.000000
                          1       4    4pz               0.070000       0.076505
                                                         0.143687      -0.086104
                                                         0.313471       0.010230
                                                         0.721783       0.129894
                                                         1.876046       0.000000

                          1       5    4dx2              0.070000       0.004316
                                                         0.143687       0.012639
                                                         0.313471       0.125057
                                                         0.721783       0.080411
                                                         1.876046       0.000000
                          1       5    4dxy              0.070000       0.007476
                                                         0.143687       0.021892
                                                         0.313471       0.216606
                                                         0.721783       0.139276
                                                         1.876046       0.000000
                          1       5    4dxz              0.070000       0.007476
                                                         0.143687       0.021892
                                                         0.313471       0.216606
                                                         0.721783       0.139276
                                                         1.876046       0.000000
                          1       5    4dy2              0.070000       0.004316
                                                         0.143687       0.012639
                                                         0.313471       0.125057
                                                         0.721783       0.080411
                                                         1.876046       0.000000
                          1       5    4dyz              0.070000       0.007476
                                                         0.143687       0.021892
                                                         0.313471       0.216606
                                                         0.721783       0.139276
                                                         1.876046       0.000000
                          1       5    4dz2              0.070000       0.004316
                                                         0.143687       0.012639
                                                         0.313471       0.125057
                                                         0.721783       0.080411
                                                         1.876046       0.000000

                          2       1    1s                2.093200       0.161650

     AE Potential information for                                            ALL

       Description:                                       All-electron potential
                                          Krack, Parrinello, PCCP 2, 2105 (2000)

       Gaussian exponent of the core charge distribution:               4.109048
       Electronic configuration (s p d ...):                           4   2   0

  3. Atomic kind: H                                     Number of atoms:       8

     Orbital Basis Set                                         aug-SZV-MOLOPT-ae

       Number of orbital shell sets:                                           1
       Number of orbital shells:                                               4
       Number of primitive Cartesian functions:                                7
       Number of Cartesian basis functions:                                    6
       Number of spherical basis functions:                                    6
       Norm type:                                                              2

       Normalised Cartesian orbitals:

                        Set   Shell   Orbital            Exponent    Coefficient

                          1       1    1s                0.065428       0.000000
                                                         0.100112       0.016532
                                                         0.243077       0.102760
                                                         0.625955       0.185857
                                                         1.822143       0.188385
                                                         6.513144       0.143430
                                                        35.523221       0.095030

                          1       2    2s                0.065428       0.083549
                                                         0.100112       0.009605
                                                         0.243077       0.002524
                                                         0.625955       0.013457
                                                         1.822143       0.000000
                                                         6.513144       0.000000
                                                        35.523221       0.000000

                          1       3    3s                0.065428       0.037407
                                                         0.100112      -0.169070
                                                         0.243077      -0.018899
                                                         0.625955       0.012806
                                                         1.822143       0.000000
                                                         6.513144       0.000000
                                                        35.523221       0.000000

                          1       4    2px               0.065428       0.059908
                                                         0.100112      -0.023770
                                                         0.243077       0.000032
                                                         0.625955       0.017779
                                                         1.822143       0.000000
                                                         6.513144       0.000000
                                                        35.523221       0.000000
                          1       4    2py               0.065428       0.059908
                                                         0.100112      -0.023770
                                                         0.243077       0.000032
                                                         0.625955       0.017779
                                                         1.822143       0.000000
                                                         6.513144       0.000000
                                                        35.523221       0.000000
                          1       4    2pz               0.065428       0.059908
                                                         0.100112      -0.023770
                                                         0.243077       0.000032
                                                         0.625955       0.017779
                                                         1.822143       0.000000
                                                         6.513144       0.000000
                                                        35.523221       0.000000

     RI Auxiliary Basis Set             RI_aug-SZV-MOLOPT-ae_N_RI_035_s_p_d_f_g_

       Number of orbital shell sets:                                          15
       Number of orbital shells:                                              15
       Number of primitive Cartesian functions:                               15
       Number of Cartesian basis functions:                                   37
       Number of spherical basis functions:                                   35
       Norm type:                                                              2

       Normalised Cartesian orbitals:

                        Set   Shell   Orbital            Exponent    Coefficient

                          1       1    1s                0.236911       0.242019

                          2       1    8px               0.347892       0.380843
                          2       1    8py               0.347892       0.380843
                          2       1    8pz               0.347892       0.380843

                          3       1    2s                0.423897       0.374417

                          4       1    9px               0.493166       0.589089
                          4       1    9py               0.493166       0.589089
                          4       1    9pz               0.493166       0.589089

                          5       1   14dx2              0.625366       0.723843
                          5       1   14dxy              0.625366       1.253733
                          5       1   14dxz              0.625366       1.253733
                          5       1   14dy2              0.625366       0.723843
                          5       1   14dyz              0.625366       1.253733
                          5       1   14dz2              0.625366       0.723843

                          6       1   10px               0.699103       0.911206
                          6       1   10py               0.699103       0.911206
                          6       1   10pz               0.699103       0.911206

                          7       1    3s                0.758464       0.579244

                          8       1   11px               0.991036       1.409457
                          8       1   11py               0.991036       1.409457
                          8       1   11pz               0.991036       1.409457

                          9       1   15dx2              1.286053       2.556305
                          9       1   15dxy              1.286053       4.427650
                          9       1   15dxz              1.286053       4.427650
                          9       1   15dy2              1.286053       2.556305
                          9       1   15dyz              1.286053       4.427650
                          9       1   15dz2              1.286053       2.556305

                         10       1    4s                1.357095       0.896123

                         11       1   12px               1.404875       2.180155
                         11       1   12py               1.404875       2.180155
                         11       1   12pz               1.404875       2.180155

                         12       1   13px               1.991527       3.372273
                         12       1   13py               1.991527       3.372273
                         12       1   13pz               1.991527       3.372273

                         13       1    5s                2.428204       1.386354

                         14       1    6s                4.344704       2.144768

                         15       1    7s                7.773833       3.318077

       Atomic covalent radius [Angstrom]:                                  0.320

       Atomic van der Waals radius [Angstrom]:                             1.090

     The atoms of this atomic kind are PAW atoms (GAPW):
       Hard Gaussian function radius:                                      1.200
       Rho0 radius:                                                        1.200
       Maximum GTO radius used for PAW projector construction:            24.566

     GAPW Soft Basis Set                                  aug-SZV-MOLOPT-ae_soft

       Number of orbital shell sets:                                           1
       Number of orbital shells:                                               4
       Number of primitive Cartesian functions:                                6
       Number of Cartesian basis functions:                                    6
       Number of spherical basis functions:                                    6
       Norm type:                                                              2

       Normalised Cartesian orbitals:

                        Set   Shell   Orbital            Exponent    Coefficient

                          1       1    1s                0.065428       0.000000
                                                         0.100112       0.016532
                                                         0.243077       0.102760
                                                         0.625955       0.185857
                                                         1.822143       0.188385
                                                         6.513144       0.000000

                          1       2    2s                0.065428       0.083549
                                                         0.100112       0.009605
                                                         0.243077       0.002524
                                                         0.625955       0.013457
                                                         1.822143       0.000000
                                                         6.513144       0.000000

                          1       3    3s                0.065428       0.037407
                                                         0.100112      -0.169070
                                                         0.243077      -0.018899
                                                         0.625955       0.012806
                                                         1.822143       0.000000
                                                         6.513144       0.000000

                          1       4    2px               0.065428       0.059908
                                                         0.100112      -0.023770
                                                         0.243077       0.000032
                                                         0.625955       0.017779
                                                         1.822143       0.000000
                                                         6.513144       0.000000
                          1       4    2py               0.065428       0.059908
                                                         0.100112      -0.023770
                                                         0.243077       0.000032
                                                         0.625955       0.017779
                                                         1.822143       0.000000
                                                         6.513144       0.000000
                          1       4    2pz               0.065428       0.059908
                                                         0.100112      -0.023770
                                                         0.243077       0.000032
                                                         0.625955       0.017779
                                                         1.822143       0.000000
                                                         6.513144       0.000000

     AE Potential information for                                            ALL

       Description:                                       All-electron potential
                                          Krack, Parrinello, PCCP 2, 2105 (2000)

       Gaussian exponent of the core charge distribution:              12.500000
       Electronic configuration (s p d ...):                           1   0   0

  4. Atomic kind: S                                     Number of atoms:       1

     Orbital Basis Set                                         aug-SZV-MOLOPT-ae

       Number of orbital shell sets:                                           3
       Number of orbital shells:                                               8
       Number of primitive Cartesian functions:                               19
       Number of Cartesian basis functions:                                   19
       Number of spherical basis functions:                                   18
       Norm type:                                                              2

       Normalised Cartesian orbitals:

                        Set   Shell   Orbital            Exponent    Coefficient

                          1       1    1s                0.072000       0.000000
                                                         0.148404       0.047043
[...]
 mp_alltoall_d11v                  1616  9.5    1.757    2.577    1.757    2.577
 integrate_four_center_main          80 10.0    0.022    0.047    2.248    2.455
 integrate_four_center_bin         8837 11.0    2.226    2.440    2.226    2.440
 compute_GW_self_energy             100  7.0    0.001    0.001    2.413    2.437
 parallel_gemm_fm                   378  8.4    0.000    0.000    2.188    2.214
 parallel_gemm_fm_cosma             378  9.4    2.188    2.214    2.188    2.214
 mp_sum_d                          4273  6.7    1.930    2.110    1.930    2.110
 integrate_vhg0_rspace               80  8.0    0.063    0.086    2.065    2.074
 compute_GW_self_energy_deep        100  8.0    0.633    0.652    2.005    2.028
 xc_functional_eval                 395 10.7    0.001    0.001    1.291    1.940
 pbe_lda_eval                       395 11.7    1.290    1.939    1.290    1.939
 start_bse_calculation                1  7.0    0.000    0.000    1.771    1.772
 cp_fm_diag_elpa                     85  7.0    0.000    0.000    1.702    1.707
 cp_fm_diag_elpa_base                85  8.0    1.675    1.684    1.694    1.695
 mp_waitall_1                     38910 12.0    1.112    1.511    1.112    1.511
 powell_optimize                 974879 11.0    1.402    1.444    1.402    1.444
 transfer_pw2rs_30                   80 12.0    0.724    0.741    1.264    1.354
 calculate_vxc_atom                  80  8.0    0.041    0.135    1.307    1.308
 calc_screening_functions             1 10.0    0.479    0.490    1.256    1.282
 pw_scatter_p                       874 12.1    1.094    1.124    1.094    1.124
 gaVxcgb_GC                         158  9.0    0.081    1.118    0.081    1.118
 qs_scf_new_mos                      79  5.0    0.001    0.001    1.016    1.090
 transfer_pw2rs_90                   80 12.0    0.152    0.176    0.843    1.059
 transfer_rs2pw_90                   80  9.0    0.174    0.214    0.841    1.043
 calculate_rho_atom                 320  9.0    0.459    1.003    0.459    1.003
 calc_pair_dist_radii                 1 10.0    0.321    0.325    0.946    0.964
 pw_derive                          714 11.3    0.913    0.931    0.913    0.931
 transfer_rs2pw_30                   80  9.0    0.317    0.336    0.833    0.924
 create_hermitian_form_of_ABBA        1  8.0    0.000    0.000    0.883    0.885
 pw_copy                           1195 10.6    0.800    0.827    0.800    0.827
 pw_gather_p                        797 11.8    0.795    0.826    0.795    0.826
 mp_sum_dm                         4164  7.7    0.692    0.784    0.692    0.784
 cp2k_distribution_to_z_slices       80  9.0    0.292    0.321    0.740    0.764
 mp_sendrecv_dv                   12640 10.0    0.684    0.753    0.684    0.753
 diagonalize_C                        1  8.0    0.000    0.000    0.750    0.751
 cp_fm_power                          2  7.5    0.016    0.020    0.724    0.727
 rs_gather_matrices                  80 10.0    0.002    0.003    0.583    0.679
 rpa_num_int_RPA_matrix_operati     100  7.0    0.001    0.003    0.673    0.674
 mp_sum_dv                         9830 10.4    0.615    0.661    0.615    0.661
 grid_integrate_task_list            80 10.0    0.090    0.649    0.090    0.649
 eigensolver_symm                    80  6.0    0.005    0.006    0.624    0.626
 mp2_ri_gpw_compute_in                1  5.0    0.000    0.000    0.610    0.610
 compute_vec_Sigma_x_minus_vxc_       1  4.0    0.000    0.000    0.590    0.590
 rs_grid_zero                       402 11.2    0.558    0.579    0.558    0.579
 pw_copy_to_array                   797 11.8    0.461    0.574    0.461    0.574
 mp_isend_dv                      13811 11.8    0.230    0.545    0.230    0.545
 mp2_ri_gpw_compute_in_loop           1  6.0    0.000    0.000    0.533    0.533
 pw_poisson_set                      81  8.9    0.001    0.001    0.524    0.530
 fft_wrap_pw1pw2_90                 160 10.5    0.024    0.025    0.500    0.512
 pw_copy_from_array                 874 12.1    0.395    0.487    0.395    0.487
 contract_B_L                         4  7.0    0.001    0.001    0.328    0.416
 calc_mat_Q                         100  8.0    0.000    0.000    0.404    0.412
 contract_S_to_Q                    100  9.0    0.000    0.000    0.402    0.410
 cp_fm_cholesky_invert              101  8.0    0.380    0.388    0.380    0.388
 pw_integral_ab_c1d_c1d_gs           80  9.0    0.347    0.349    0.370    0.376
 pw_axpy                            795  9.3    0.343    0.359    0.343    0.359
 mp2_eri_3c_integrate                 1  7.0    0.001    0.002    0.161    0.349
 integrate_set_3c                  2984  8.0    0.143    0.317    0.159    0.347
 mp_isend_dm3                      2892 11.5    0.063    0.346    0.063    0.346
 calculate_dm_sparse                 79  6.0    0.000    0.000    0.272    0.336
 cp_dbcsr_plus_fm_fm_t               79  7.0    0.001    0.001    0.271    0.336
 pw_poisson_rebuild                  80  9.0    0.000    0.000    0.320    0.335
 ps_wavelet_create                    1 10.0    0.000    0.000    0.320    0.335
 RS_z_slice_distribution              1 11.0    0.252    0.279    0.320    0.335
 mp_cart_create                     600  9.9    0.231    0.319    0.231    0.319
 cp_fm_cholesky_decompose           102  9.0    0.291    0.307    0.291    0.307
 dbt_pgrid_create_expert             84 10.8    0.000    0.000    0.210    0.297
 dbcsr_multiply_generic             172  8.1    0.004    0.004    0.223    0.292
 transfer_pw2rs_10                   80 12.0    0.127    0.134    0.265    0.281
 qs_energies_init_hamiltonians        1  3.0    0.000    0.000    0.275    0.275
 transfer_rs2pw_10                   80  9.0    0.079    0.082    0.246    0.273
 build_core_hamiltonian_matrix        1  4.0    0.000    0.000    0.272    0.272
 overlap_condnum                      1  5.0    0.000    0.000    0.270    0.271
 calculate_rho_atom_coeff            80  6.0    0.032    0.042    0.261    0.261
 compute_Erpa_by_freq_int           100  8.0    0.001    0.001    0.255    0.256
 arnoldi_conjugate_gradient           5  6.0    0.006    0.007    0.252    0.252
 mp2_main_alloc_hfx                   1  4.0    0.130    0.230    0.130    0.230
 init_scf_run                         1  3.0    0.000    0.000    0.219    0.219
 pw_zero                            476 10.3    0.205    0.218    0.205    0.218
 write_mo_set_to_restart             79  5.0    0.003    0.207    0.188    0.217
 scf_env_initial_rho_setup            1  4.0    0.000    0.000    0.210    0.210
 mp_sum_i                            19  9.5    0.100    0.206    0.100    0.206
 restraint_control                    1  2.0    0.000    0.000    0.100    0.205
 multiply_cannon                    172  9.1    0.008    0.008    0.132    0.200
 write_mo_set_low                     4  6.0    0.000    0.000    0.185    0.187
 cp_fm_write_unformatted              4  7.0    0.185    0.187    0.185    0.187
 multiply_cannon_loop               172 10.1    0.005    0.006    0.114    0.183
 qs_init_subsys                       1  2.0    0.001    0.001    0.177    0.177
 qs_env_setup                         1  3.0    0.000    0.000    0.172    0.173
 qs_env_rebuild_pw_env                2  3.5    0.000    0.000    0.172    0.173
 pw_env_rebuild                       1  5.0    0.000    0.000    0.172    0.173
 dbcsr_complete_redistribute        296  8.5    0.010    0.012    0.163    0.166
 create_qs_kind_set                   1  2.0    0.000    0.000    0.164    0.165
 read_qs_kind                         4  3.0    0.060    0.106    0.164    0.165
 copy_dbcsr_to_fm                   134  6.8    0.002    0.002    0.149    0.164
 Vh_1c_gg_integrals                  80  8.0    0.013    0.114    0.152    0.160
 multiply_cannon_metrocomm3        1768 11.1    0.002    0.002    0.064    0.154
 pw_grid_setup                        4  6.0    0.000    0.000    0.153    0.154
 pw_grid_setup_internal               4  7.0    0.002    0.003    0.153    0.154
 self_consistency_check              79  5.0    0.000    0.000    0.069    0.151
 cp_sm_mix                           79  6.0    0.000    0.000    0.069    0.151
 mp_max_d                            81  6.9    0.068    0.150    0.068    0.150
 dbcsr_sym_matrix_vector_mult      1795  7.0    0.013    0.014    0.145    0.150
 mp_irecv_dv                      13753 11.8    0.013    0.137    0.013    0.137
 fft_wrap_pw1pw2_30                 160 10.5    0.004    0.005    0.133    0.137
 multiply_cannon_metrocomm4        1596 11.1    0.002    0.003    0.006    0.135
 multiply_cannon_metrocomm1        1768 11.1    0.001    0.001    0.023    0.132
 mp_max_i                           619  3.0    0.110    0.126    0.110    0.126
 mp_bcast_b_src                     165  7.5    0.111    0.120    0.111    0.120
 update_ks_atom                      80  8.0    0.025    0.037    0.101    0.117
 dbt_total                            8  8.0    0.000    0.000    0.112    0.112
 pw_grid_sort                         4  8.0    0.080    0.081    0.109    0.112
 external_control                    80  5.0    0.001    0.107    0.110    0.110
 parser_read_line                 26622  4.0    0.004    0.004    0.104    0.106
 dbt_contract                         4  9.0    0.000    0.000    0.099    0.102
 parser_read_line_low                39  5.0    0.002    0.022    0.101    0.102
 cp_fm_to_fm_submat_general         112 10.1    0.094    0.101    0.094    0.101
 broadcast_input_information         39  6.0    0.006    0.007    0.099    0.101
 calculate_rho0_atom                320  9.0    0.095    0.096    0.095    0.096
 dbcsr_add_d                       2757  7.1    0.001    0.001    0.017    0.093
 dbcsr_add_anytype                 2757  8.1    0.002    0.010    0.016    0.092
 copy_fm_to_dbcsr                   162  8.1    0.000    0.000    0.088    0.091
 mp_bcast_dm                       2720  9.0    0.077    0.087    0.077    0.087
 mp_comm_split_direct                48 14.5    0.071    0.083    0.071    0.083
 dbcsr_desymmetrize_deep            136  7.7    0.003    0.003    0.068    0.083
 mp_bcast_i_src                     156  7.0    0.074    0.082    0.074    0.082
 mp2_main_free_hfx                    1  4.0    0.014    0.080    0.014    0.080
 mp_sum_l                          1148  6.6    0.060    0.079    0.060    0.079
 scale_and_distribute               160 10.0    0.064    0.078    0.064    0.078
 get_2c_integrals                     1  6.0    0.000    0.000    0.075    0.076
 dbt_tas_multiply                     8 11.5    0.000    0.000    0.074    0.074
 dbt_tas_total                        8 12.5    0.001    0.003    0.074    0.074
 make_m2s                           344  9.1    0.003    0.003    0.066    0.068
 pw_scale                           317  9.5    0.043    0.068    0.043    0.068
 dbcsr_finalize                    4814 10.8    0.006    0.018    0.027    0.067
 integrate_four_center_load          80 10.0    0.000    0.000    0.047    0.067
 hfx_load_balance                     1 11.0    0.000    0.000    0.047    0.066
 mp_alltoall_i11v                  1024  9.4    0.066    0.066    0.066    0.066
 fft_wrap_pw1pw2_10                 160 10.5    0.001    0.001    0.062    0.064
 cp_fm_uplo_to_full                 189  8.4    0.045    0.063    0.045    0.063
 compute_2c_integrals                 1  7.0    0.000    0.000    0.027    0.061
 mp_isendrecv_dv                  25280 12.0    0.036    0.061    0.036    0.061
 fm_general_add_bse                   5 10.2    0.000    0.000    0.057    0.060
 hfx_load_balance_range               1 12.0    0.000    0.000    0.039    0.058
 dbcsr_col_vec_to_rep_row          1795  8.0    0.006    0.006    0.051    0.058
 create_A                             1  8.0    0.001    0.002    0.056    0.057
 cholesky_decomp                      1  7.0    0.000    0.000    0.037    0.053
 scf_post_calculation_gpw             1  3.0    0.000    0.000    0.053    0.053
 write_available_results              1  4.0    0.000    0.000    0.053    0.053
 write_mo_free_results                1  5.0    0.004    0.005    0.053    0.053
 create_B                             1  8.0    0.000    0.000    0.050    0.053
 cp_fm_syrk                           3  7.0    0.051    0.052    0.051    0.052
 mp_rank_compare                   1671 12.9    0.048    0.050    0.048    0.050
 mp_alltoall_i22                    432  9.2    0.035    0.050    0.035    0.050
 mp_irecv_dm3                      2892 11.5    0.009    0.050    0.009    0.050
 postprocess_bse                      1  9.0    0.000    0.000    0.045    0.045
 vxc_of_r_new                       316  9.0    0.001    0.007    0.005    0.045
 create_integ_mat                     4  6.0    0.001    0.001    0.042    0.044
 dbcsr_rep_row_to_rep_col_vec      1795  8.0    0.005    0.005    0.028    0.044
 array2fm                             4  7.0    0.000    0.000    0.037    0.042
 dbt_tas_dbm                          8 13.5    0.000    0.000    0.040    0.040
 integrate_four_center_dist_KS       80 10.0    0.006    0.007    0.039    0.040
 mp_bcast_dv                       1795  9.0    0.033    0.040    0.033    0.040
 cp_fm_symm                          80  7.0    0.036    0.039    0.036    0.039
 rs_scatter_matrices                 80  7.0    0.001    0.001    0.038    0.039
 dbt_tas_mm_1N                        8 14.5    0.000    0.000    0.031    0.039
 dbm_multiply                         8 15.5    0.031    0.039    0.031    0.039
 make_images                        344 10.1    0.007    0.007    0.034    0.036
 dbcsr_iterator_start             24484  9.0    0.019    0.028    0.023    0.036
 integrate_four_center_getP          80 10.0    0.006    0.006    0.032    0.034
 sort_shells                          4  9.0    0.029    0.031    0.029    0.031
 abc_contract                      2984  9.0    0.017    0.030    0.017    0.030
 dbcsr_merge_all                   3700 11.5    0.009    0.022    0.014    0.030
 hybrid_alltoall_any                480 11.1    0.004    0.005    0.028    0.029
 mixing_init                          1  5.0    0.026    0.027    0.027    0.027
 xc_pw_smooth                        79 10.0    0.000    0.000    0.023    0.025
 dbt_copy                            12 10.0    0.000    0.000    0.022    0.025
 dbcsr_copy                        8116  7.7    0.014    0.014    0.023    0.024
 mult_B_with_W                        1  8.0    0.000    0.000    0.023    0.024
 dbcsr_work_create                 4516 10.6    0.005    0.016    0.008    0.024
 get_multipoles_mo                    1 10.0    0.000    0.000    0.023    0.023
 mp_maxloc_dv                      1511  1.0    0.017    0.022    0.017    0.022
 mp_bcast_am_src                     39  7.0    0.017    0.020    0.018    0.021
 hirshfeld_integration                1  6.0    0.001    0.006    0.021    0.021
 dbcsr_crop_matrix                  474 10.0    0.002    0.002    0.020    0.020
 array2fm_info                        4  8.0    0.017    0.020    0.018    0.020
 dbt_tas_estimate_result_nze          4 12.0    0.000    0.000    0.020    0.020
 offload_free_buffer                 88  8.5    0.015    0.020    0.015    0.020
 fm_general_add_bse_1_setup           5 11.2    0.017    0.020    0.017    0.020
 dbt_distribution_new_expert         76 10.1    0.001    0.001    0.019    0.020
 Q_trace_and_add_unit_matrix        100  8.0    0.000    0.001    0.013    0.019
 dbcsr_create_new                 11492  9.2    0.013    0.014    0.018    0.019
 dbcsr_work_destroy_all            4516 11.6    0.004    0.014    0.006    0.019
 dbt_reshape                          8 11.5    0.003    0.006    0.015    0.018
 calculate_hirshfeld_normalizat       1  6.0    0.001    0.006    0.017    0.018
 dbt_tas_distribution_new            92 11.7    0.009    0.010    0.017    0.018
 dbt_remap                            8 10.0    0.001    0.001    0.017    0.018
 dbcsr_iterator_stop              24484  9.0    0.011    0.015    0.014    0.017
 compute_max_radius                   1  6.0    0.017    0.017    0.017    0.017
 mp_cart_sub                        272  8.8    0.016    0.016    0.016    0.016
 dbcsr_copy_submatrix               474 11.0    0.002    0.002    0.015    0.016
 pw_grid_remap                        4  8.0    0.003    0.003    0.013    0.015
 get_oscillator_strengths             1 10.0    0.000    0.000    0.015    0.015
 fm_general_add_bse_5_comm_buff       5 11.2    0.000    0.000    0.010    0.015
 communicate_buffer                   5 12.2    0.000    0.000    0.010    0.015
 pw_grid_assign                       4  8.0    0.012    0.013    0.014    0.014
 mp_bcast_av                        756  1.0    0.004    0.006    0.011    0.014
 make_images_sizes                  344 11.1    0.000    0.000    0.011    0.014
 multiply_cannon_multrec           1768 11.1    0.011    0.013    0.011    0.013
 mp_alltoall_i44                    344 12.1    0.011    0.013    0.011    0.013
 fm_general_add_bse_4_buf_from_       1 10.0    0.010    0.013    0.010    0.013
 cp_dbcsr_sm_fm_multiply              3 11.0    0.000    0.000    0.013    0.013
 mp_sum_im3                           4  9.0    0.010    0.013    0.010    0.013
 array2fm_buffer_send                 4  8.0    0.012    0.013    0.012    0.013
 cp_fm_redistribute_start            85  8.0    0.000    0.000    0.007    0.012
 dbcsr_data_new                   44354 11.0    0.007    0.012    0.007    0.012
 ao_to_mo_and_store_B_mult_gw_1      11  7.0    0.000    0.000    0.009    0.012
 dbt_split_blocks_generic            20  8.8    0.002    0.003    0.012    0.012
 dbt_communicate_buffer               8 12.5    0.000    0.000    0.010    0.012
 array2fm_fill                        4  8.0    0.002    0.004    0.006    0.012
 ao_to_mo_and_store_B_mult_bse_      11  7.0    0.000    0.000    0.009    0.012
 create_fast_col_vec_access        3590  8.0    0.007    0.007    0.011    0.011
 fm_general_add_bse_4_buf_from_       1 10.0    0.010    0.011    0.010    0.011
 dbt_tas_create_split                44 13.2    0.000    0.000    0.011    0.011
 mp_sum_iv                          211  9.9    0.008    0.011    0.008    0.011
 dbt_tas_create_split_rows_or_c      44 14.2    0.000    0.000    0.011    0.011
 create_fast_row_vec_access        3590  8.0    0.006    0.007    0.010    0.011
 ao_to_mo_and_store_B_mult_1         11  7.0    0.000    0.000    0.008    0.011
 dbcsr_data_release               73095 10.6    0.007    0.011    0.007    0.011
 mp_waitall_2                        48 15.8    0.008    0.010    0.008    0.010
 hfx_create                           1  2.0    0.009    0.010    0.009    0.010
 dbt_tas_replicate                    8 13.5    0.003    0.003    0.009    0.010
 mp_sum_im                         4017 13.0    0.008    0.010    0.008    0.010
 dbt_create_new                      40  9.5    0.000    0.000    0.010    0.010
 mulliken_population_analysis         1  6.0    0.000    0.000    0.010    0.010
 make_images_data                   344 11.1    0.002    0.002    0.008    0.009
 -------------------------------------------------------------------------------

 The number of warnings for this run is : 1
 
 -------------------------------------------------------------------------------
  **** **** ******  **  PROGRAM ENDED AT                 2025-05-05 02:55:30.620
 ***** ** ***  *** **   PROGRAM RAN ON                     n2cn0308.ab2021.local
 **    ****   ******    PROGRAM RAN BY                                  metdyn02
 ***** **    ** ** **   PROGRAM PROCESS ID                               2380628
  **** **  *******  **  PROGRAM STOPPED IN /scratch/hpc-prf-metdyn/metdyn02_Remi
                                           /10_MOL/05_MOL/aUKBqsEOTmq69kFe5R_nOg
                                           /5k_set_final_qzvp/XTBCOC/SZV/GW+BSE/
                                           RILIM
