 DBCSR| CPU Multiplication driver                                           BLAS (U)
 DBCSR| Multrec recursion limit                                              512 (U)
 DBCSR| Multiplication stack size                                           1000 (D)
 DBCSR| Maximum elements for images                                    UNLIMITED (U)
 DBCSR| Multiplicative factor virtual images                                   1 (U)
 DBCSR| Use multiplication densification                                       T (D)
 DBCSR| Multiplication size stacks                                             3 (U)
 DBCSR| Use memory pool for CPU allocation                                     F (U)
 DBCSR| Number of 3D layers                                               SINGLE (U)
 DBCSR| Use MPI memory allocation                                              F (U)
 DBCSR| Use RMA algorithm                                                      F (U)
 DBCSR| Use Communication thread                                               T (U)
 DBCSR| Communication thread load                                             75 (D)
 DBCSR| MPI: My process id                                                     0
 DBCSR| MPI: Number of processes                                             216
 DBCSR| OMP: Current number of threads                                         4
 DBCSR| OMP: Max number of threads                                             4
 DBCSR| Split modifier for TAS multiplication algorithm                  1.0E+00 (U)


  **** **** ******  **  PROGRAM STARTED AT               2025-04-02 20:24:05.908
 ***** ** ***  *** **   PROGRAM STARTED ON                          i08r03c06s08
 **    ****   ******    PROGRAM STARTED BY                               di38fab
 ***** **    ** ** **   PROGRAM PROCESS ID                                411469
  **** **  *******  **  PROGRAM STARTED IN /hppfs/scratch/04/di38fab/07_MOL_non_
                                           aug/05_MOL_non_aug/05_MOL/aUKBqsEOTmq
                                           69kFe5R_nOg/5k_set_final_qzvp/WAQBOG/
                                           TZVPP/TDDFT

 CP2K| version string:                 CP2K version 2025.1 (Development Version)
 CP2K| source code revision number:                                  git:d2e611a
 CP2K| cp2kflags: omp libint fftw3 libxc parallel scalapack max_contr=4         
 CP2K| is freely available from                            https://www.cp2k.org/
 CP2K| Program compiled at                       Thu 06 Mar 2025 05:09:20 PM CET
 CP2K| Program compiled on                                               login02
 CP2K| Program compiled for                                        Supermuc-foss
 CP2K| Data directory path                  /hppfs/work/pn36zo/di38fab/cp2k/data
 CP2K| Input file name                                                    GW.inp

 GLOBAL| Force Environment number                                              1
 GLOBAL| Basis set file name            /hppfs/scratch/04/di38fab/04_TMD/BASIS_A
 GLOBAL| Potential file name            /hppfs/work/pn36zo/di38fab/cp2k/data/ALL
 GLOBAL| MM Potential file name                                     MM_POTENTIAL
 GLOBAL| Coordinate file name                                      __STD_INPUT__
 GLOBAL| Method name                                                        CP2K
 GLOBAL| Project name                                                       MoS2
 GLOBAL| Run type                                                         ENERGY
 GLOBAL| FFT library                                                       FFTW3
 GLOBAL| Diagonalization library                                       ScaLAPACK
 GLOBAL| DGEMM library                                                      BLAS
 GLOBAL| Orthonormality check for eigenvectors                          DISABLED
 GLOBAL| Matrix multiplication library                                 ScaLAPACK
 GLOBAL| All-to-all communication in single precision                          F
 GLOBAL| FFTs using library dependent lengths                                  F
 GLOBAL| Grid backend                                                       AUTO
 GLOBAL| Global print level                                               MEDIUM
 GLOBAL| MPI I/O enabled                                                       T
 GLOBAL| Total number of message passing processes                           216
 GLOBAL| Number of threads for this process                                    4
 GLOBAL| This output is from process                                           0
 GLOBAL| OpenMP stack size per thread (OMP_STACKSIZE)                    default
 GLOBAL| CPU model name             Intel(R) Xeon(R) Platinum 8174 CPU @ 3.10GHz

 MEMORY| system memory details [Kb]
 MEMORY|                        rank 0           min           max       average
 MEMORY| MemTotal             98436664      98436648      98436736      98436676
 MEMORY| MemFree              84139652      83597828      84231120      84010168
 MEMORY| Buffers                     0             0             0             0
 MEMORY| Cached                2397136       2394944       2426300       2404934
 MEMORY| Slab                  1246248       1209492       1263996       1239611
 MEMORY| SReclaimable           276404        269772        293764        279199
 MEMORY| MemLikelyFree        86813192      86294328      86902888      86694302


 *** Fundamental physical constants (SI units) ***

 *** Literature: B. J. Mohr and B. N. Taylor,
 ***             CODATA recommended values of the fundamental physical
 ***             constants: 2006, Web Version 5.1
 ***             http://physics.nist.gov/constants

 Speed of light in vacuum [m/s]                             2.99792458000000E+08
 Magnetic constant or permeability of vacuum [N/A**2]       1.25663706143592E-06
 Electric constant or permittivity of vacuum [F/m]          8.85418781762039E-12
 Planck constant (h) [J*s]                                  6.62606896000000E-34
 Planck constant (h-bar) [J*s]                              1.05457162825177E-34
 Elementary charge [C]                                      1.60217648700000E-19
 Electron mass [kg]                                         9.10938215000000E-31
 Electron g factor [ ]                                     -2.00231930436220E+00
 Proton mass [kg]                                           1.67262163700000E-27
 Fine-structure constant                                    7.29735253760000E-03
 Rydberg constant [1/m]                                     1.09737315685270E+07
 Avogadro constant [1/mol]                                  6.02214179000000E+23
 Boltzmann constant [J/K]                                   1.38065040000000E-23
 Atomic mass unit [kg]                                      1.66053878200000E-27
 Bohr radius [m]                                            5.29177208590000E-11

 *** Conversion factors ***

 [u] -> [a.u.]                                              1.82288848426455E+03
 [Angstrom] -> [Bohr] = [a.u.]                              1.88972613288564E+00
 [a.u.] = [Bohr] -> [Angstrom]                              5.29177208590000E-01
 [a.u.] -> [s]                                              2.41888432650478E-17
 [a.u.] -> [fs]                                             2.41888432650478E-02
 [a.u.] -> [J]                                              4.35974393937059E-18
 [a.u.] -> [N]                                              8.23872205491840E-08
 [a.u.] -> [K]                                              3.15774647902944E+05
 [a.u.] -> [kJ/mol]                                         2.62549961709828E+03
 [a.u.] -> [kcal/mol]                                       6.27509468713739E+02
 [a.u.] -> [Pa]                                             2.94210107994716E+13
 [a.u.] -> [bar]                                            2.94210107994716E+08
 [a.u.] -> [atm]                                            2.90362800883016E+08
 [a.u.] -> [eV]                                             2.72113838565563E+01
 [a.u.] -> [Hz]                                             6.57968392072181E+15
 [a.u.] -> [1/cm] (wave numbers)                            2.19474631370540E+05
 [a.u./Bohr**2] -> [1/cm]                                   5.14048714338585E+03
 

 CELL_TOP| Volume [angstrom^3]:                                     27000.000000
 CELL_TOP| Vector a [angstrom    30.000     0.000     0.000   |a| =    30.000000
 CELL_TOP| Vector b [angstrom     0.000    30.000     0.000   |b| =    30.000000
 CELL_TOP| Vector c [angstrom     0.000     0.000    30.000   |c| =    30.000000
 CELL_TOP| Angle (b,c), alpha [degree]:                                90.000000
 CELL_TOP| Angle (a,c), beta  [degree]:                                90.000000
 CELL_TOP| Angle (a,b), gamma [degree]:                                90.000000
 CELL_TOP| Numerically orthorhombic:                                         YES
 CELL_TOP| Periodicity                                                      NONE

 GENERATE|  Preliminary Number of Bonds generated:                             0
 GENERATE|  Achieved consistency in connectivity generation.

 CELL| Volume [angstrom^3]:                                         27000.000000
 CELL| Vector a [angstrom]:      30.000     0.000     0.000   |a| =    30.000000
 CELL| Vector b [angstrom]:       0.000    30.000     0.000   |b| =    30.000000
 CELL| Vector c [angstrom]:       0.000     0.000    30.000   |c| =    30.000000
 CELL| Angle (b,c), alpha [degree]:                                    90.000000
 CELL| Angle (a,c), beta  [degree]:                                    90.000000
 CELL| Angle (a,b), gamma [degree]:                                    90.000000
 CELL| Numerically orthorhombic:                                             YES
 CELL| Periodicity                                                          NONE

 CELL_REF| Volume [angstrom^3]:                                     27000.000000
 CELL_REF| Vector a [angstrom    30.000     0.000     0.000   |a| =    30.000000
 CELL_REF| Vector b [angstrom     0.000    30.000     0.000   |b| =    30.000000
 CELL_REF| Vector c [angstrom     0.000     0.000    30.000   |c| =    30.000000
 CELL_REF| Angle (b,c), alpha [degree]:                                90.000000
 CELL_REF| Angle (a,c), beta  [degree]:                                90.000000
 CELL_REF| Angle (a,b), gamma [degree]:                                90.000000
 CELL_REF| Numerically orthorhombic:                                         YES
 CELL_REF| Periodicity                                                      NONE

 *******************************************************************************
 *******************************************************************************
 **                                                                           **
 **     #####                         ##              ##                      **
 **    ##   ##            ##          ##              ##                      **
 **   ##     ##                       ##            ######                    **
 **   ##     ##  ##   ##  ##   #####  ##  ##   ####   ##    #####    #####    **
 **   ##     ##  ##   ##  ##  ##      ## ##   ##      ##   ##   ##  ##   ##   **
 **   ##  ## ##  ##   ##  ##  ##      ####     ###    ##   ######   ######    **
 **    ##  ###   ##   ##  ##  ##      ## ##      ##   ##   ##       ##        **
 **     #######   #####   ##   #####  ##  ##  ####    ##    #####   ##        **
 **           ##                                                    ##        **
 **                                                                           **
 **                                                ... make the atoms dance   **
 **                                                                           **
 **            Copyright (C) by CP2K developers group (2000-2025)             **
 **                      J. Chem. Phys. 152, 194103 (2020)                    **
 **                                                                           **
 *******************************************************************************

 DFT| Spin restricted Kohn-Sham (RKS) calculation                            RKS
 DFT| Multiplicity                                                             1
 DFT| Number of spin states                                                    1
 DFT| Charge                                                                   0
 DFT| Self-interaction correction (SIC)                                       NO
 DFT| Cutoffs: density                                              1.000000E-10
 DFT|          gradient                                             1.000000E-10
 DFT|          tau                                                  1.000000E-10
 DFT|          cutoff_smoothing_range                               0.000000E+00
 DFT| XC density smoothing                                                  NONE
 DFT| XC derivatives                                                          PW

 FUNCTIONAL| PBE:
 FUNCTIONAL| J.P.Perdew, K.Burke, M.Ernzerhof, Phys. Rev. Letter, vol. 77, n 18,
 FUNCTIONAL|  pp. 3865-3868, (1996)sx=0.750sc=1.000{spin unpolarized}           


 QS| Method:                                                                GAPW
 QS| Density plane wave grid type                        NON-SPHERICAL FULLSPACE
 QS| Number of grid levels:                                                    4
 QS| Density cutoff [a.u.]:                                                250.0
 QS| Multi grid cutoff [a.u.]: 1) grid level                               250.0
 QS|                           2) grid level                                83.3
 QS|                           3) grid level                                27.8
 QS|                           4) grid level                                 9.3
 QS| Grid level progression factor:                                          3.0
 QS| Relative density cutoff [a.u.]:                                        50.0
 QS| Interaction thresholds: eps_pgf_orb:                                1.0E-12
 QS|                         eps_filter_matrix:                          0.0E+00
 QS|                         eps_core_charge:                            1.0E-14
 QS|                         eps_rho_gspace:                             1.0E-12
 QS|                         eps_rho_rspace:                             1.0E-12
 QS|                         eps_gvg_rspace:                             1.0E-06
 QS|                         eps_ppl:                                    1.0E-02
 QS|                         eps_ppnl:                                   1.0E-08
 QS| GAPW|      One center basis from orbital basis primitives
 QS| GAPW|                   eps_fit:                                    1.0E-04
 QS| GAPW|                   eps_iso:                                    1.0E-12
 QS| GAPW|                   eps_svd:                                    1.0E-08
 QS| GAPW|                   eps_cpc:                                    1.0E-12
 QS| GAPW|   atom-r-grid: quadrature:                                     GC_LOG
 QS| GAPW|      atom-s-grid:  max l :                                          6
 QS| GAPW|      max_l_rho0 :                                                   2


 ATOMIC KIND INFORMATION

  1. Atomic kind: N                                     Number of atoms:       5

     Orbital Basis Set                                       TZVPP-MOLOPT-GGA-ae

       Number of orbital shell sets:                                           2
       Number of orbital shells:                                              11
       Number of primitive Cartesian functions:                               12
       Number of Cartesian basis functions:                                   36
       Number of spherical basis functions:                                   31
       Norm type:                                                              2

       Normalised Cartesian orbitals:

                        Set   Shell   Orbital            Exponent    Coefficient

                          1       1    1s               49.270190       0.802518
                                                         8.608625       2.378505
                                                         2.987378       0.535699
                                                         0.930550      -0.061635
                                                         0.322032       0.036074
                                                         0.113512       0.014500

                          1       2    2s               49.270190      -0.622920
                                                         8.608625      -0.061481
                                                         2.987378       0.054918
                                                         0.930550       0.396674
                                                         0.322032       0.082974
                                                         0.113512       0.032692

                          1       3    3s               49.270190      -0.366977
                                                         8.608625      -0.870010
                                                         2.987378      -0.229943
                                                         0.930550      -0.408076
                                                         0.322032       0.306069
                                                         0.113512       0.047996

                          1       4    4s               49.270190      -7.166333
                                                         8.608625      -0.961511
                                                         2.987378       0.637930
                                                         0.930550      -0.188982
                                                         0.322032      -0.186943
                                                         0.113512       0.171213

                          1       5    2px              49.270190      12.161855
                                                         8.608625       1.288759
                                                         2.987378       1.750760
                                                         0.930550       0.811118
                                                         0.322032       0.040684
                                                         0.113512       0.006367
                          1       5    2py              49.270190      12.161855
                                                         8.608625       1.288759
                                                         2.987378       1.750760
                                                         0.930550       0.811118
                                                         0.322032       0.040684
                                                         0.113512       0.006367
                          1       5    2pz              49.270190      12.161855
                                                         8.608625       1.288759
                                                         2.987378       1.750760
                                                         0.930550       0.811118
                                                         0.322032       0.040684
                                                         0.113512       0.006367

                          1       6    3px              49.270190     -28.403920
                                                         8.608625       0.375399
                                                         2.987378      -0.764833
                                                         0.930550      -0.153789
                                                         0.322032       0.344073
                                                         0.113512       0.011134
                          1       6    3py              49.270190     -28.403920
                                                         8.608625       0.375399
                                                         2.987378      -0.764833
                                                         0.930550      -0.153789
                                                         0.322032       0.344073
                                                         0.113512       0.011134
                          1       6    3pz              49.270190     -28.403920
                                                         8.608625       0.375399
                                                         2.987378      -0.764833
                                                         0.930550      -0.153789
                                                         0.322032       0.344073
                                                         0.113512       0.011134

                          1       7    4px              49.270190       8.328837
                                                         8.608625      -0.402261
                                                         2.987378      -0.049280
                                                         0.930550      -0.121777
                                                         0.322032      -0.047567
                                                         0.113512       0.104427
                          1       7    4py              49.270190       8.328837
                                                         8.608625      -0.402261
                                                         2.987378      -0.049280
                                                         0.930550      -0.121777
                                                         0.322032      -0.047567
                                                         0.113512       0.104427
                          1       7    4pz              49.270190       8.328837
                                                         8.608625      -0.402261
                                                         2.987378      -0.049280
                                                         0.930550      -0.121777
                                                         0.322032      -0.047567
                                                         0.113512       0.104427

                          1       8    3dx2             49.270190     -47.156995
                                                         8.608625     -15.504622
                                                         2.987378       4.861216
                                                         0.930550       0.975526
                                                         0.322032       0.004138
                                                         0.113512       0.008426
                          1       8    3dxy             49.270190     -81.678311
                                                         8.608625     -26.854794
                                                         2.987378       8.419873
                                                         0.930550       1.689661
                                                         0.322032       0.007167
                                                         0.113512       0.014594
                          1       8    3dxz             49.270190     -81.678311
                                                         8.608625     -26.854794
                                                         2.987378       8.419873
                                                         0.930550       1.689661
                                                         0.322032       0.007167
                                                         0.113512       0.014594
                          1       8    3dy2             49.270190     -47.156995
                                                         8.608625     -15.504622
                                                         2.987378       4.861216
                                                         0.930550       0.975526
                                                         0.322032       0.004138
                                                         0.113512       0.008426
                          1       8    3dyz             49.270190     -81.678311
                                                         8.608625     -26.854794
                                                         2.987378       8.419873
                                                         0.930550       1.689661
                                                         0.322032       0.007167
                                                         0.113512       0.014594
                          1       8    3dz2             49.270190     -47.156995
                                                         8.608625     -15.504622
                                                         2.987378       4.861216
                                                         0.930550       0.975526
                                                         0.322032       0.004138
                                                         0.113512       0.008426

                          1       9    4dx2             49.270190      69.517765
                                                         8.608625      17.703387
                                                         2.987378      -3.348764
                                                         0.930550       0.469670
                                                         0.322032       0.207542
                                                         0.113512      -0.007657
                          1       9    4dxy             49.270190     120.408301
                                                         8.608625      30.663165
                                                         2.987378      -5.800229
                                                         0.930550       0.813493
                                                         0.322032       0.359472
                                                         0.113512      -0.013263
                          1       9    4dxz             49.270190     120.408301
                                                         8.608625      30.663165
                                                         2.987378      -5.800229
                                                         0.930550       0.813493
                                                         0.322032       0.359472
                                                         0.113512      -0.013263
                          1       9    4dy2             49.270190      69.517765
                                                         8.608625      17.703387
                                                         2.987378      -3.348764
                                                         0.930550       0.469670
                                                         0.322032       0.207542
                                                         0.113512      -0.007657
                          1       9    4dyz             49.270190     120.408301
                                                         8.608625      30.663165
                                                         2.987378      -5.800229
                                                         0.930550       0.813493
                                                         0.322032       0.359472
                                                         0.113512      -0.013263
                          1       9    4dz2             49.270190      69.517765
                                                         8.608625      17.703387
                                                         2.987378      -3.348764
                                                         0.930550       0.469670
                                                         0.322032       0.207542
                                                         0.113512      -0.007657

                          1      10    4fx3             49.270190     240.939936
                                                         8.608625      -7.108652
                                                         2.987378       1.277764
                                                         0.930550       1.022795
                                                         0.322032       0.026408
                                                         0.113512       0.000350
                          1      10    4fx2y            49.270190     538.758076
                                                         8.608625     -15.895429
                                                         2.987378       2.857166
                                                         0.930550       2.287038
                                                         0.322032       0.059050
                                                         0.113512       0.000782
                          1      10    4fx2z            49.270190     538.758076
                                                         8.608625     -15.895429
                                                         2.987378       2.857166
                                                         0.930550       2.287038
                                                         0.322032       0.059050
                                                         0.113512       0.000782
                          1      10    4fxy2            49.270190     538.758076
                                                         8.608625     -15.895429
                                                         2.987378       2.857166
                                                         0.930550       2.287038
                                                         0.322032       0.059050
                                                         0.113512       0.000782
                          1      10    4fxyz            49.270190     933.156361
                                                         8.608625     -27.531691
                                                         2.987378       4.948757
                                                         0.930550       3.961267
                                                         0.322032       0.102278
                                                         0.113512       0.001354
                          1      10    4fxz2            49.270190     538.758076
                                                         8.608625     -15.895429
                                                         2.987378       2.857166
                                                         0.930550       2.287038
                                                         0.322032       0.059050
                                                         0.113512       0.000782
                          1      10    4fy3             49.270190     240.939936
                                                         8.608625      -7.108652
                                                         2.987378       1.277764
                                                         0.930550       1.022795
                                                         0.322032       0.026408
                                                         0.113512       0.000350
                          1      10    4fy2z            49.270190     538.758076
                                                         8.608625     -15.895429
                                                         2.987378       2.857166
                                                         0.930550       2.287038
                                                         0.322032       0.059050
                                                         0.113512       0.000782
                          1      10    4fyz2            49.270190     538.758076
                                                         8.608625     -15.895429
                                                         2.987378       2.857166
                                                         0.930550       2.287038
                                                         0.322032       0.059050
                                                         0.113512       0.000782
                          1      10    4fz3             49.270190     240.939936
                                                         8.608625      -7.108652
                                                         2.987378       1.277764
                                                         0.930550       1.022795
                                                         0.322032       0.026408
                                                         0.113512       0.000350

                          2       1    1s            19730.758242       0.654856
                                                      2958.006020       1.769548
                                                       673.387518       2.322723
                                                       190.675174       4.547417
                                                        62.366448       3.527190
                                                        22.833858       5.352733

     RI Auxiliary Basis Set                                    aug-cc-pV5Z-OPTRI

       Number of orbital shell sets:                                          22
       Number of orbital shells:                                              22
       Number of primitive Cartesian functions:                               22
       Number of Cartesian basis functions:                                  188
       Number of spherical basis functions:                                  122
       Norm type:                                                              2

       Normalised Cartesian orbitals:

                        Set   Shell   Orbital            Exponent    Coefficient

                          1       1    1gx4              0.134828       0.004501
                          1       1    1gx3y             0.134828       0.011909
                          1       1    1gx3z             0.134828       0.011909
                          1       1    1gx2y2            0.134828       0.015375
                          1       1    1gx2yz            0.134828       0.026630
                          1       1    1gx2z2            0.134828       0.015375
                          1       1    1gxy3             0.134828       0.011909
                          1       1    1gxy2z            0.134828       0.026630
                          1       1    1gxyz2            0.134828       0.026630
                          1       1    1gxz3             0.134828       0.011909
                          1       1    1gy4              0.134828       0.004501
                          1       1    1gy3z             0.134828       0.011909
                          1       1    1gy2z2            0.134828       0.015375
                          1       1    1gyz3             0.134828       0.011909
                          1       1    1gz4              0.134828       0.004501

                          2       1    1px               0.159639       0.143835
                          2       1    1py               0.159639       0.143835
                          2       1    1pz               0.159639       0.143835

                          3       1    1s                0.209162       0.220431

                          4       1    1px               0.436875       0.506275
                          4       1    1py               0.436875       0.506275
                          4       1    1pz               0.436875       0.506275

                          5       1    1hx5              0.527568       0.092843
                          5       1    1hx4y             0.527568       0.278529
                          5       1    1hx4z             0.527568       0.278529
                          5       1    1hx3y2            0.527568       0.425460
                          5       1    1hx3yz            0.527568       0.736918
                          5       1    1hx3z2            0.527568       0.425460
                          5       1    1hx2y3            0.527568       0.425460
                          5       1    1hx2y2z           0.527568       0.951358
                          5       1    1hx2yz2           0.527568       0.951358
                          5       1    1hx2z3            0.527568       0.425460
                          5       1    1hxy4             0.527568       0.278529
                          5       1    1hxy3z            0.527568       0.736918
                          5       1    1hxy2z2           0.527568       0.951358
                          5       1    1hxyz3            0.527568       0.736918
                          5       1    1hxz4             0.527568       0.278529
                          5       1    1hy5              0.527568       0.092843
                          5       1    1hy4z             0.527568       0.278529
                          5       1    1hy3z2            0.527568       0.425460
                          5       1    1hy2z3            0.527568       0.425460
                          5       1    1hyz4             0.527568       0.278529
                          5       1    1hz5              0.527568       0.092843

                          6       1    1s                0.530900       0.443271

                          7       1    1fx3              0.738473       0.744230
                          7       1    1fx2y             0.738473       1.664150
                          7       1    1fx2z             0.738473       1.664150
                          7       1    1fxy2             0.738473       1.664150
                          7       1    1fxyz             0.738473       2.882392
                          7       1    1fxz2             0.738473       1.664150
                          7       1    1fy3              0.738473       0.744230
                          7       1    1fy2z             0.738473       1.664150
                          7       1    1fyz2             0.738473       1.664150
                          7       1    1fz3              0.738473       0.744230

                          8       1    1px               1.004026       1.432588
                          8       1    1py               1.004026       1.432588
                          8       1    1pz               1.004026       1.432588

                          9       1    1dx2              1.119820       2.006406
                          9       1    1dxy              1.119820       3.475197
                          9       1    1dxz              1.119820       3.475197
                          9       1    1dy2              1.119820       2.006406
                          9       1    1dyz              1.119820       3.475197
                          9       1    1dz2              1.119820       2.006406

                         10       1    1s                1.393963       0.914321

                         11       1    1gx4              1.404119       2.830064
                         11       1    1gx3y             1.404119       7.487644
                         11       1    1gx3z             1.404119       7.487644
                         11       1    1gx2y2            1.404119       9.666507
                         11       1    1gx2yz            1.404119      16.742882
                         11       1    1gx2z2            1.404119       9.666507
                         11       1    1gxy3             1.404119       7.487644
                         11       1    1gxy2z            1.404119      16.742882
                         11       1    1gxyz2            1.404119      16.742882
                         11       1    1gxz3             1.404119       7.487644
                         11       1    1gy4              1.404119       2.830064
                         11       1    1gy3z             1.404119       7.487644
                         11       1    1gy2z2            1.404119       9.666507
                         11       1    1gyz3             1.404119       7.487644
                         11       1    1gz4              1.404119       2.830064

                         12       1    1fx3              1.802390       5.541332
                         12       1    1fx2y             1.802390      12.390795
                         12       1    1fx2z             1.802390      12.390795
                         12       1    1fxy2             1.802390      12.390795
                         12       1    1fxyz             1.802390      21.461487
                         12       1    1fxz2             1.802390      12.390795
                         12       1    1fy3              1.802390       5.541332
                         12       1    1fy2z             1.802390      12.390795
                         12       1    1fyz2             1.802390      12.390795
                         12       1    1fz3              1.802390       5.541332

                         13       1    1ix6              1.941471       5.384789
                         13       1    1ix5y             1.941471      17.859326
                         13       1    1ix5z             1.941471      17.859326
                         13       1    1ix4y2            1.941471      30.933260
                         13       1    1ix4yz            1.941471      53.577978
                         13       1    1ix4z2            1.941471      30.933260
                         13       1    1ix3y3            1.941471      36.600727
                         13       1    1ix3y2z           1.941471      81.841714
                         13       1    1ix3yz2           1.941471      81.841714
                         13       1    1ix3z3            1.941471      36.600727
                         13       1    1ix2y4            1.941471      30.933260
                         13       1    1ix2y3z           1.941471      81.841714
                         13       1    1ix2y2z2          1.941471     105.657198
                         13       1    1ix2yz3           1.941471      81.841714
                         13       1    1ix2z4            1.941471      30.933260
                         13       1    1ixy5             1.941471      17.859326
                         13       1    1ixy4z            1.941471      53.577978
                         13       1    1ixy3z2           1.941471      81.841714
                         13       1    1ixy2z3           1.941471      81.841714
                         13       1    1ixyz4            1.941471      53.577978
                         13       1    1ixz5             1.941471      17.859326
                         13       1    1iy6              1.941471       5.384789
                         13       1    1iy5z             1.941471      17.859326
                         13       1    1iy4z2            1.941471      30.933260
                         13       1    1iy3z3            1.941471      36.600727
                         13       1    1iy2z4            1.941471      30.933260
                         13       1    1iyz5             1.941471      17.859326
                         13       1    1iz6              1.941471       5.384789

                         14       1    1px               2.643998       4.805809
                         14       1    1py               2.643998       4.805809
                         14       1    1pz               2.643998       4.805809

                         15       1    1dx2              3.091394      11.862592
                         15       1    1dxy              3.091394      20.546612
                         15       1    1dxz              3.091394      20.546612
                         15       1    1dy2              3.091394      11.862592
                         15       1    1dyz              3.091394      20.546612
                         15       1    1dz2              3.091394      11.862592

                         16       1    1hx5              3.455251      41.725627
                         16       1    1hx4y             3.455251     125.176881
                         16       1    1hx4z             3.455251     125.176881
                         16       1    1hx3y2            3.455251     191.210844
                         16       1    1hx3yz            3.455251     331.186896
                         16       1    1hx3z2            3.455251     191.210844
                         16       1    1hx2y3            3.455251     191.210844
                         16       1    1hx2y2z           3.455251     427.560445
                         16       1    1hx2yz2           3.455251     427.560445
                         16       1    1hx2z3            3.455251     191.210844
                         16       1    1hxy4             3.455251     125.176881
                         16       1    1hxy3z            3.455251     331.186896
                         16       1    1hxy2z2           3.455251     427.560445
                         16       1    1hxyz3            3.455251     331.186896
                         16       1    1hxz4             3.455251     125.176881
                         16       1    1hy5              3.455251      41.725627
                         16       1    1hy4z             3.455251     125.176881
                         16       1    1hy3z2            3.455251     191.210844
                         16       1    1hy2z3            3.455251     191.210844
                         16       1    1hyz4             3.455251     125.176881
                         16       1    1hz5              3.455251      41.725627

                         17       1    1gx4              5.019491      94.026343
                         17       1    1gx3y             5.019491     248.770320
                         17       1    1gx3z             5.019491     248.770320
                         17       1    1gx2y2            5.019491     321.161102
                         17       1    1gx2yz            5.019491     556.267347
                         17       1    1gx2z2            5.019491     321.161102
                         17       1    1gxy3             5.019491     248.770320
                         17       1    1gxy2z            5.019491     556.267347
                         17       1    1gxyz2            5.019491     556.267347
                         17       1    1gxz3             5.019491     248.770320
                         17       1    1gy4              5.019491      94.026343
                         17       1    1gy3z             5.019491     248.770320
                         17       1    1gy2z2            5.019491     321.161102
                         17       1    1gyz3             5.019491     248.770320
                         17       1    1gz4              5.019491      94.026343

                         18       1    1s                6.323282       2.841954

                         19       1    1px               6.613928      15.118699
                         19       1    1py               6.613928      15.118699
                         19       1    1pz               6.613928      15.118699

                         20       1    1dx2              6.959399      49.080615
                         20       1    1dxy              6.959399      85.010119
                         20       1    1dxz              6.959399      85.010119
                         20       1    1dy2              6.959399      49.080615
                         20       1    1dyz              6.959399      85.010119
                         20       1    1dz2              6.959399      49.080615

                         21       1    1fx3              7.060014     119.609855
                         21       1    1fx2y             7.060014     267.455767
                         21       1    1fx2z             7.060014     267.455767
                         21       1    1fxy2             7.060014     267.455767
                         21       1    1fxyz             7.060014     463.246977
                         21       1    1fxz2             7.060014     267.455767
                         21       1    1fy3              7.060014     119.609855
                         21       1    1fy2z             7.060014     267.455767
                         21       1    1fyz2             7.060014     267.455767
                         21       1    1fz3              7.060014     119.609855

                         22       1    1dx2             13.517160     156.840783
                         22       1    1dxy             13.517160     271.656205
                         22       1    1dxz             13.517160     271.656205
                         22       1    1dy2             13.517160     156.840783
                         22       1    1dyz             13.517160     271.656205
                         22       1    1dz2             13.517160     156.840783

       Atomic covalent radius [Angstrom]:                                  0.750

       Atomic van der Waals radius [Angstrom]:                             1.550

     The atoms of this atomic kind are PAW atoms (GAPW):
       Hard Gaussian function radius:                                      1.512
       Rho0 radius:                                                        1.512
       Maximum GTO radius used for PAW projector construction:            24.566

     GAPW Soft Basis Set                                TZVPP-MOLOPT-GGA-ae_soft

       Number of orbital shell sets:                                           2
       Number of orbital shells:                                              11
       Number of primitive Cartesian functions:                                4
       Number of Cartesian basis functions:                                   36
       Number of spherical basis functions:                                   31
       Norm type:                                                              2

       Normalised Cartesian orbitals:

                        Set   Shell   Orbital            Exponent    Coefficient

                          1       1    1s                2.987378       0.535699
                                                         0.930550      -0.061635
                                                         0.322032       0.036074
                                                         0.113512       0.014500

                          1       2    2s                2.987378       0.054918
                                                         0.930550       0.396674
                                                         0.322032       0.082974
                                                         0.113512       0.032692

                          1       3    3s                2.987378      -0.229943
                                                         0.930550      -0.408076
                                                         0.322032       0.306069
                                                         0.113512       0.047996

                          1       4    4s                2.987378       0.637930
                                                         0.930550      -0.188982
                                                         0.322032      -0.186943
                                                         0.113512       0.171213

                          1       5    2px               2.987378       1.750760
                                                         0.930550       0.811118
                                                         0.322032       0.040684
                                                         0.113512       0.006367
                          1       5    2py               2.987378       1.750760
                                                         0.930550       0.811118
                                                         0.322032       0.040684
                                                         0.113512       0.006367
                          1       5    2pz               2.987378       1.750760
                                                         0.930550       0.811118
                                                         0.322032       0.040684
                                                         0.113512       0.006367

                          1       6    3px               2.987378      -0.764833
                                                         0.930550      -0.153789
                                                         0.322032       0.344073
                                                         0.113512       0.011134
                          1       6    3py               2.987378      -0.764833
                                                         0.930550      -0.153789
                                                         0.322032       0.344073
                                                         0.113512       0.011134
                          1       6    3pz               2.987378      -0.764833
                                                         0.930550      -0.153789
                                                         0.322032       0.344073
                                                         0.113512       0.011134

                          1       7    4px               2.987378      -0.049280
                                                         0.930550      -0.121777
                                                         0.322032      -0.047567
                                                         0.113512       0.104427
                          1       7    4py               2.987378      -0.049280
                                                         0.930550      -0.121777
                                                         0.322032      -0.047567
                                                         0.113512       0.104427
                          1       7    4pz               2.987378      -0.049280
                                                         0.930550      -0.121777
                                                         0.322032      -0.047567
                                                         0.113512       0.104427

                          1       8    3dx2              2.987378       4.861216
                                                         0.930550       0.975526
                                                         0.322032       0.004138
                                                         0.113512       0.008426
                          1       8    3dxy              2.987378       8.419873
                                                         0.930550       1.689661
                                                         0.322032       0.007167
                                                         0.113512       0.014594
                          1       8    3dxz              2.987378       8.419873
                                                         0.930550       1.689661
                                                         0.322032       0.007167
                                                         0.113512       0.014594
                          1       8    3dy2              2.987378       4.861216
                                                         0.930550       0.975526
                                                         0.322032       0.004138
                                                         0.113512       0.008426
                          1       8    3dyz              2.987378       8.419873
                                                         0.930550       1.689661
                                                         0.322032       0.007167
                                                         0.113512       0.014594
                          1       8    3dz2              2.987378       4.861216
                                                         0.930550       0.975526
                                                         0.322032       0.004138
                                                         0.113512       0.008426

                          1       9    4dx2              2.987378      -3.348764
                                                         0.930550       0.469670
                                                         0.322032       0.207542
                                                         0.113512      -0.007657
                          1       9    4dxy              2.987378      -5.800229
                                                         0.930550       0.813493
                                                         0.322032       0.359472
                                                         0.113512      -0.013263
                          1       9    4dxz              2.987378      -5.800229
                                                         0.930550       0.813493
                                                         0.322032       0.359472
                                                         0.113512      -0.013263
                          1       9    4dy2              2.987378      -3.348764
                                                         0.930550       0.469670
                                                         0.322032       0.207542
                                                         0.113512      -0.007657
                          1       9    4dyz              2.987378      -5.800229
                                                         0.930550       0.813493
                                                         0.322032       0.359472
                                                         0.113512      -0.013263
                          1       9    4dz2              2.987378      -3.348764
                                                         0.930550       0.469670
                                                         0.322032       0.207542
                                                         0.113512      -0.007657

                          1      10    4fx3              2.987378       1.277764
                                                         0.930550       1.022795
                                                         0.322032       0.026408
                                                         0.113512       0.000350
                          1      10    4fx2y             2.987378       2.857166
                                                         0.930550       2.287038
                                                         0.322032       0.059050
                                                         0.113512       0.000782
                          1      10    4fx2z             2.987378       2.857166
                                                         0.930550       2.287038
                                                         0.322032       0.059050
                                                         0.113512       0.000782
                          1      10    4fxy2             2.987378       2.857166
                                                         0.930550       2.287038
                                                         0.322032       0.059050
                                                         0.113512       0.000782
                          1      10    4fxyz             2.987378       4.948757
                                                         0.930550       3.961267
                                                         0.322032       0.102278
                                                         0.113512       0.001354
                          1      10    4fxz2             2.987378       2.857166
                                                         0.930550       2.287038
                                                         0.322032       0.059050
                                                         0.113512       0.000782
                          1      10    4fy3              2.987378       1.277764
                                                         0.930550       1.022795
                                                         0.322032       0.026408
                                                         0.113512       0.000350
                          1      10    4fy2z             2.987378       2.857166
                                                         0.930550       2.287038
                                                         0.322032       0.059050
                                                         0.113512       0.000782
                          1      10    4fyz2             2.987378       2.857166
                                                         0.930550       2.287038
                                                         0.322032       0.059050
                                                         0.113512       0.000782
                          1      10    4fz3              2.987378       1.277764
                                                         0.930550       1.022795
                                                         0.322032       0.026408
                                                         0.113512       0.000350

                          2       1    1s         

     AE Potential information for                                            ALL

       Description:                                       All-electron potential
                                          Krack, Parrinello, PCCP 2, 2105 (2000)

       Gaussian exponent of the core charge distribution:               5.979100
       Electronic configuration (s p d ...):                           4   3   0

  2. Atomic kind: C                                     Number of atoms:       3

     Orbital Basis Set                                       TZVPP-MOLOPT-GGA-ae

       Number of orbital shell sets:                                           2
       Number of orbital shells:                                              11
       Number of primitive Cartesian functions:                               12
       Number of Cartesian basis functions:                                   36
       Number of spherical basis functions:                                   31
       Norm type:                                                              2

       Normalised Cartesian orbitals:

                        Set   Shell   Orbital            Exponent    Coefficient

                          1       1    1s               34.417212       0.637474
                                                         6.739673       1.752510
                                                         2.441624       0.446183
                                                         0.806764       0.003692
                                                         0.283960       0.027513
                                                         0.097098       0.019281

                          1       2    2s               34.417212       1.102934
                                                         6.739673      -0.288836
                                                         2.441624      -0.104551
                                                         0.806764       0.362633
                                                         0.283960       0.094997
                                                         0.097098       0.029117

                          1       3    3s               34.417212      -6.120053
                                                         6.739673      -0.168746
                                                         2.441624      -0.199197
                                                         0.806764      -0.252838
                                                         0.283960       0.169545
                                                         0.097098       0.047046

                          1       4    4s               34.417212      -3.786931
                                                         6.739673      -0.401007
                                                         2.441624      -0.053941
                                                         0.806764       0.091223
                                                         0.283960      -0.341415
                                                         0.097098       0.188374

                          1       5    2px              34.417212       2.016536
                                                         6.739673       2.243109
                                                         2.441624       0.695625
                                                         0.806764       0.779023
                                                         0.283960       0.032186
                                                         0.097098       0.005087
                          1       5    2py              34.417212       2.016536
                                                         6.739673       2.243109
                                                         2.441624       0.695625
                                                         0.806764       0.779023
                                                         0.283960       0.032186
                                                         0.097098       0.005087
                          1       5    2pz              34.417212       2.016536
                                                         6.739673       2.243109
                                                         2.441624       0.695625
                                                         0.806764       0.779023
                                                         0.283960       0.032186
                                                         0.097098       0.005087

                          1       6    3px              34.417212       1.690366
                                                         6.739673      -2.720242
                                                         2.441624       0.912249
                                                         0.806764      -0.188640
                                                         0.283960       0.294367
                                                         0.097098       0.008084
                          1       6    3py              34.417212       1.690366
                                                         6.739673      -2.720242
                                                         2.441624       0.912249
                                                         0.806764      -0.188640
                                                         0.283960       0.294367
                                                         0.097098       0.008084
                          1       6    3pz              34.417212       1.690366
                                                         6.739673      -2.720242
                                                         2.441624       0.912249
                                                         0.806764      -0.188640
                                                         0.283960       0.294367
                                                         0.097098       0.008084

                          1       7    4px              34.417212     -12.705833
                                                         6.739673       1.761645
                                                         2.441624      -0.855991
                                                         0.806764      -0.070055
                                                         0.283960      -0.017243
                                                         0.097098       0.081068
                          1       7    4py              34.417212     -12.705833
                                                         6.739673       1.761645
                                                         2.441624      -0.855991
                                                         0.806764      -0.070055
                                                         0.283960      -0.017243
                                                         0.097098       0.081068
                          1       7    4pz              34.417212     -12.705833
                                                         6.739673       1.761645
                                                         2.441624      -0.855991
                                                         0.806764      -0.070055
                                                         0.283960      -0.017243
                                                         0.097098       0.081068

                          1       8    3dx2             34.417212     174.894573
                                                         6.739673       4.248634
                                                         2.441624       3.763414
                                                         0.806764       0.546922
                                                         0.283960       0.015501
                                                         0.097098       0.001415
                          1       8    3dxy             34.417212     302.926287
                                                         6.739673       7.358850
                                                         2.441624       6.518424
                                                         0.806764       0.947296
                                                         0.283960       0.026849
                                                         0.097098       0.002451
                          1       8    3dxz             34.417212     302.926287
                                                         6.739673       7.358850
                                                         2.441624       6.518424
                                                         0.806764       0.947296
                                                         0.283960       0.026849
                                                         0.097098       0.002451
                          1       8    3dy2             34.417212     174.894573
                                                         6.739673       4.248634
                                                         2.441624       3.763414
                                                         0.806764       0.546922
                                                         0.283960       0.015501
                                                         0.097098       0.001415
                          1       8    3dyz             34.417212     302.926287
                                                         6.739673       7.358850
                                                         2.441624       6.518424
                                                         0.806764       0.947296
                                                         0.283960       0.026849
                                                         0.097098       0.002451
                          1       8    3dz2             34.417212     174.894573
                                                         6.739673       4.248634
                                                         2.441624       3.763414
                                                         0.806764       0.546922
                                                         0.283960       0.015501
                                                         0.097098       0.001415

                          1       9    4dx2             34.417212    -164.169372
                                                         6.739673      -4.401044
                                                         2.441624      -2.510108
                                                         0.806764       0.323683
                                                         0.283960       0.139703
                                                         0.097098       0.001225
                          1       9    4dxy             34.417212    -284.349694
                                                         6.739673      -7.622831
                                                         2.441624      -4.347634
                                                         0.806764       0.560636
                                                         0.283960       0.241972
                                                         0.097098       0.002122
                          1       9    4dxz             34.417212    -284.349694
                                                         6.739673      -7.622831
                                                         2.441624      -4.347634
                                                         0.806764       0.560636
                                                         0.283960       0.241972
                                                         0.097098       0.002122
                          1       9    4dy2             34.417212    -164.169372
                                                         6.739673      -4.401044
                                                         2.441624      -2.510108
                                                         0.806764       0.323683
                                                         0.283960       0.139703
                                                         0.097098       0.001225
                          1       9    4dyz             34.417212    -284.349694
                                                         6.739673      -7.622831
                                                         2.441624      -4.347634
                                                         0.806764       0.560636
                                                         0.283960       0.241972
                                                         0.097098       0.002122
                          1       9    4dz2             34.417212    -164.169372
                                                         6.739673      -4.401044
                                                         2.441624      -2.510108
                                                         0.806764       0.323683
                                                         0.283960       0.139703
                                                         0.097098       0.001225

                          1      10    4fx3             34.417212      49.427593
                                                         6.739673      -2.026957
                                                         2.441624       1.033755
                                                         0.806764       0.576468
                                                         0.283960       0.042127
                                                         0.097098      -0.000799
                          1      10    4fx2y            34.417212     110.523457
                                                         6.739673      -4.532415
                                                         2.441624       2.311546
                                                         0.806764       1.289022
                                                         0.283960       0.094199
                                                         0.097098      -0.001786
                          1      10    4fx2z            34.417212     110.523457
                                                         6.739673      -4.532415
                                                         2.441624       2.311546
                                                         0.806764       1.289022
                                                         0.283960       0.094199
                                                         0.097098      -0.001786
                          1      10    4fxy2            34.417212     110.523457
                                                         6.739673      -4.532415
                                                         2.441624       2.311546
                                                         0.806764       1.289022
                                                         0.283960       0.094199
                                                         0.097098      -0.001786
                          1      10    4fxyz            34.417212     191.432243
                                                         6.739673      -7.850372
                                                         2.441624       4.003716
                                                         0.806764       2.232651
                                                         0.283960       0.163158
                                                         0.097098      -0.003093
                          1      10    4fxz2            34.417212     110.523457
                                                         6.739673      -4.532415
                                                         2.441624       2.311546
                                                         0.806764       1.289022
                                                         0.283960       0.094199
                                                         0.097098      -0.001786
                          1      10    4fy3             34.417212      49.427593
                                                         6.739673      -2.026957
                                                         2.441624       1.033755
                                                         0.806764       0.576468
                                                         0.283960       0.042127
                                                         0.097098      -0.000799
                          1      10    4fy2z            34.417212     110.523457
                                                         6.739673      -4.532415
                                                         2.441624       2.311546
                                                         0.806764       1.289022
                                                         0.283960       0.094199
                                                         0.097098      -0.001786
                          1      10    4fyz2            34.417212     110.523457
                                                         6.739673      -4.532415
                                                         2.441624       2.311546
                                                         0.806764       1.289022
                                                         0.283960       0.094199
                                                         0.097098      -0.001786
                          1      10    4fz3             34.417212      49.427593
[...]
 SUBROUTINE                       CALLS  ASD         SELF TIME        TOTAL TIME
                                MAXIMUM       AVERAGE  MAXIMUM  AVERAGE  MAXIMUM
 CP2K                                 1  1.0    0.041    0.066  384.991  384.991
 qs_energies                          1  2.0    0.001    0.001  381.884  381.885
 qs_energies_properties               1  3.0    0.000    0.000  218.321  218.321
 tddfpt                               1  4.0    0.000    0.001  218.321  218.321
 tddfpt_energies                      1  5.0    0.000    0.001  218.265  218.265
 tddfpt_davidson_solver               1  6.0    0.002    0.004  215.818  215.818
 tddfpt_compute_Aop_evects            8  7.0    0.000    0.000  213.076  213.076
 fhxc_kernel                          8  8.0    0.007    0.008  185.299  185.300
 scf_env_do_scf                       1  3.0    0.000    0.000  162.093  162.099
 scf_env_do_scf_inner_loop           63  4.0    0.002    0.004  162.093  162.099
 qs_ks_update_qs_env                 63  5.0    0.000    0.000  141.503  141.548
 rebuild_ks_matrix                   63  6.0    0.000    0.000  141.497  141.542
 qs_ks_build_kohn_sham_matrix        63  7.0    0.010    0.011  141.496  141.542
 integrate_four_center              383  9.8    9.110   16.663  108.030  108.169
 pw_poisson_solve                   223  9.4    1.293    1.403   85.566   86.326
 fft_wrap_pw1pw2                   4537 11.1    0.072    0.095   85.031   86.062
 hfx_ks_matrix                       63  8.0    0.003    0.003   85.382   85.427
 tddfpt_apply_coulomb               160  9.0    0.003    0.004   82.027   82.799
 fft_wrap_pw1pw2_250               3193 12.1    2.203    2.519   81.194   82.299
 fft3d_ps                          4537 13.1   21.052   22.487   75.543   76.804
 mp_alltoall_z22v                  4537 15.1   49.269   57.390   49.269   57.390
 ps_wavelet_solve                   223 10.4   22.527   32.537   49.870   50.055
 integrate_four_center_main         383 10.8    0.422    1.535   38.633   45.584
 integrate_four_center_bin        96904 11.8   38.211   45.219   38.211   45.219
 qs_rho_update_rho_low              225  7.9    0.003    0.003   44.895   44.902
 calc_screening_functions             1 10.0   35.246   38.569   36.092   39.427
 calculate_rho_elec                 225  8.9    0.491    0.526   38.248   38.256
 x_to_yz                           1851 13.7    2.163    2.437   36.017   37.666
 prepare_gapw_den                   224  8.7    0.005    0.006   33.563   33.702
 mp_alltoall_d54                    223 11.4   12.133   30.390   12.133   30.390
 xc_pw_derive                      1341 11.0    0.012    0.017   28.804   30.064
 tddfpt_apply_hfx                     8  8.0    0.003    0.004   26.499   26.499
 mp_sync                           2035 11.5   15.324   26.359   15.324   26.359
 integrate_v_rspace                 223  9.0    0.005    0.007   25.589   25.874
 density_rs2pw                      225  9.9    0.013    0.016   24.224   25.499
 tddfpt_apply_xc_analytic           160  9.0    0.111    0.136   25.260   25.388
 gaVxcgb_GC                         892  9.7    0.330   22.855    0.330   22.855
 tddft_hfx_matrix                   320  9.0    0.009    0.010   22.661   22.755
 calculate_rho_atom                 896  9.7    2.700   22.103    2.700   22.104
 yz_to_x                           1790 14.5    1.639    2.005   16.900   21.539
 potential_pw2rs                    223 10.0    0.047    0.063   21.005   21.321
 xc_pw_divergence                   223 10.7    0.007    0.008   19.351   20.392
 mp_sum_dv                        22981  8.9   19.880   20.285   19.880   20.285
 calculate_xc_2nd_deriv_atom        160  9.0    0.073    2.994    0.337   20.085
 transfer_rs2pw                    1125 10.8    0.029    0.055   18.176   19.485
 transfer_pw2rs                    1116 10.9    0.016    0.021   19.001   19.171
 mp_alltoall_d45                    224 11.4   15.163   17.519   15.163   17.519
 grid_collocate_task_list           225  9.9   13.026   14.979   13.026   14.979
 xc_calc_2nd_deriv_analytical      1440 10.1    0.774    0.950   14.836   14.942
 mp_waitany                       56490 12.8   12.864   14.553   12.864   14.553
 mp_sum_d                          6995  7.4   11.331   13.749   11.331   13.749
 mp_alltoall_d11v                 14208 11.6    9.326   12.207    9.326   12.207
 mp_sum_dm                         9514 10.0   10.832   11.048   10.832   11.048
 qs_vxc_create                       63  8.0    0.001    0.001   10.941   10.942
 xc_vxc_pw_create                    63  9.0    0.177    0.204   10.940   10.941
 transfer_rs2pw_250                 450 11.8    3.574    4.032    9.139   10.731
 integrate_vhg0_rspace              223  9.4    0.564    0.672   10.462   10.564
 put_rho0_on_grid                   224  9.7    0.522    0.667   10.327   10.465
 transfer_pw2rs_250                 447 11.7    3.144    3.547    9.968   10.300
 mp_waitall_1                    455294 13.2    6.627    8.433    6.627    8.433
 cp_dbcsr_sm_fm_multiply           1006  8.6    0.021    0.023    7.445    7.568
 calculate_vxc_atom                  63  8.0    0.046    0.617    7.157    7.158
 sum_up_and_integrate                63  8.0    0.001    0.001    6.840    6.871
 calculate_rho_atom_coeff           225  8.9    0.232    0.386    6.644    6.646
 xc_rho_set_and_dset_create          64 10.0    0.146    0.188    5.052    5.434
 dbcsr_complete_redistribute       3346 10.5    0.143    0.200    5.045    5.163
 transfer_rs2pw_30                  225 11.9    2.125    2.242    4.852    4.987
 transfer_pw2rs_30                  223 12.0    2.047    2.241    4.669    4.961
 gspace_mixing                       62  5.0    0.135    0.144    4.791    4.792
 rs_gather_matrices                 223 10.0    0.015    0.025    4.302    4.637
 grid_integrate_task_list           223 10.0    0.276    4.425    0.276    4.425
 mp_sum_l                          5365 10.5    3.506    4.382    3.506    4.382
 integrate_four_center_load         383 10.8    0.001    0.002    3.364    4.249
 hfx_load_balance                     1 11.0    0.000    0.000    3.363    4.248
 hfx_load_balance_range               1 12.0    0.000    0.000    3.338    4.225
 mp_sendrecv_dv                   96750 12.9    3.630    3.802    3.630    3.802
 cp_fm_syevd                        113  7.2    0.001    0.001    3.617    3.623
 Vh_1c_gg_integrals                 223  9.4    0.067    2.971    3.067    3.582
 broyden_mixing                      62  6.0    3.350    3.451    3.465    3.516
 copy_dbcsr_to_fm                  1091  9.3    0.015    0.016    3.413    3.508
 pw_scatter_p                      2297 12.8    2.936    3.484    2.936    3.484
 cp_fm_redistribute_end             113  8.2    1.788    3.477    1.796    3.483
 copy_fm_to_dbcsr                  2253  9.6    0.011    0.012    3.345    3.466
 cp_fm_syevd_base                   113  8.2    1.680    3.369    1.680    3.369
 mp_isendrecv_dv                 260580 12.3    1.604    3.332    1.604    3.332
 transfer_pw2rs_90                  223 12.0    0.666    0.793    2.893    3.318
 qs_scf_new_mos                      63  5.0    0.001    0.001    3.208    3.219
 transfer_rs2pw_90                  225 11.9    0.669    0.838    2.708    3.142
 dbcsr_multiply_generic            1389 10.3    0.063    0.069    2.887    3.000
 pw_gather_p                       2240 13.4    2.457    2.850    2.457    2.850
 cp2k_distribution_to_z_slices      223 10.4    1.042    1.138    2.298    2.806
 create_qs_kind_set                   1  2.0    0.000    0.000    2.769    2.771
 read_qs_kind                         4  3.0    1.545    1.589    2.769    2.771
 rs_grid_zero                      1118 11.9    2.653    2.749    2.653    2.749
 fft_wrap_pw1pw2_90                 448 11.9    0.068    0.106    2.353    2.676
 eigensolver_symm                    63  6.0    0.002    0.002    2.602    2.605
 integrate_four_center_getP         383 10.8    0.173    0.190    2.422    2.467
 mp_alltoall_i11v                 11130 11.5    2.434    2.435    2.434    2.435
 pw_derive                         2010 11.8    2.210    2.381    2.210    2.381
 integrate_four_center_dist_KS      383 10.8    0.158    0.181    2.200    2.205
 cp_dbcsr_sm_fm_multiply_core      1006  9.6    0.003    0.003    2.019    2.122
 multiply_cannon                   1389 11.3    0.173    0.178    1.735    1.841
 tddfpt_print_nto_analysis            1  6.0    0.002    0.003    1.751    1.752
 powell_optimize                 621655 11.0    1.554    1.747    1.554    1.747
 dbcsr_desymmetrize_deep           1092 10.3    0.030    0.038    1.622    1.717
 pw_copy                           3030 11.0    1.526    1.652    1.526    1.652
 tddfpt_orthonormalize_psi1_psi       9  6.9    0.019    0.020    1.575    1.575
 xc_functional_eval                1848 10.9    0.001    0.006    0.780    1.564
 pbe_lda_eval                      1848 11.9    0.779    1.558    0.779    1.558
 calc_pair_dist_radii                 1 10.0    0.744    0.783    1.451    1.542
 cp_dbcsr_plus_fm_fm_t              223  8.4    0.003    0.004    1.507    1.525
 transfer_pw2rs_10                  223 12.0    0.536    0.656    1.456    1.508
 transfer_rs2pw_10                  225 11.9    0.546    0.581    1.449    1.484
 multiply_cannon_loop              1389 12.3    0.321    0.334    1.328    1.450
 pw_poisson_set                     224 10.4    0.005    0.006    1.334    1.352
 mp_isend_dv                     146656 13.8    0.790    1.284    0.790    1.284
 tddfpt_apply_energy_diff             8  8.0    0.001    0.001    1.278    1.278
 parallel_gemm_fm                  1487  8.2    0.002    0.002    1.250    1.269
 parallel_gemm_fm_gemm             1487  9.2    0.002    0.002    1.248    1.267
 cp_fm_gemm                        1487 10.2    1.246    1.265    1.246    1.265
 pw_copy_to_array                  2240 13.4    1.043    1.263    1.043    1.263
 parser_read_line                331784  4.0    0.110    0.118    1.224    1.246
 mp_irecv_dm3                      8070 12.8    0.564    1.219    0.564    1.219
 cp_fm_geeig                         20  7.0    0.001    0.001    1.172    1.174
 parser_read_line_low               356  5.0    0.084    0.516    1.114    1.137
 calculate_rho0_atom                896  9.7    1.084    1.113    1.084    1.113
 update_ks_atom                     223  8.7    0.148    0.310    0.927    1.103
 broadcast_input_information        356  6.0    0.221    0.249    1.030    1.082
 tddfpt_compute_residual_vects        7  7.0    0.001    0.001    1.062    1.062
 qs_energies_init_hamiltonians        1  3.0    0.000    0.000    1.057    1.057
 build_core_hamiltonian_matrix        1  4.0    0.000    0.000    1.046    1.046
 overlap_condnum                      1  5.0    0.000    0.000    1.040    1.044
 pw_integral_ab_c1d_c1d_gs          223 10.4    0.725    0.731    0.911    0.996
 mp_alltoall_i22                   4438 11.4    0.769    0.981    0.769    0.981
 mp_alltoall_z11v                   896 14.9    0.944    0.979    0.944    0.979
 fft_wrap_pw1pw2_30                 448 11.9    0.013    0.014    0.930    0.967
 pw_axpy                           2398 10.8    0.842    0.958    0.842    0.958
 arnoldi_conjugate_gradient           5  6.0    0.021    0.025    0.905    0.905
 make_m2s                          2778 11.3    0.055    0.058    0.790    0.856
 pw_copy_from_array                2297 12.8    0.692    0.856    0.692    0.856
 pw_zero                           2464 10.6    0.712    0.848    0.712    0.848
 mp_isend_dm3                      8070 12.8    0.454    0.840    0.454    0.840
 mp_max_i                           694  4.8    0.338    0.837    0.338    0.837
 hybrid_alltoall_any               3870 13.5    0.036    0.048    0.780    0.827
 mp_bcast_dm                       6244  9.7    0.779    0.800    0.779    0.800
 pw_poisson_rebuild                 223 10.4    0.000    0.000    0.683    0.707
 ps_wavelet_create                    1 10.0    0.000    0.000    0.683    0.707
 RS_z_slice_distribution              1 11.0    0.498    0.667    0.683    0.707
 make_images                       2778 12.3    0.157    0.165    0.645    0.703
 yz_to_xz                           446 14.0    0.040    0.045    0.621    0.653
 xc_2nd_deriv_of_r                 1280 10.0    0.002    0.096    0.009    0.572
 dbcsr_sym_matrix_vector_mult      3124  7.0    0.049    0.053    0.473    0.547
 mp_bcast_am_src                    356  7.0    0.402    0.491    0.440    0.542
 mp_bcast_i_src                    1424  7.0    0.354    0.492    0.354    0.492
 fft_wrap_pw1pw2_10                 448 11.9    0.004    0.005    0.482    0.489
 xz_to_yz                           450 13.9    0.026    0.031    0.390    0.395
 mp_rank_compare                   4537 14.1    0.370    0.394    0.370    0.394
 multiply_cannon_metrocomm3       50004 13.3    0.081    0.085    0.235    0.392
 tddfpt_construct_ground_state_       1  6.0    0.000    0.000    0.381    0.384
 calculate_dm_sparse                 63  6.0    0.000    0.001    0.370    0.382
 offload_free_buffer                231 10.2    0.270    0.366    0.270    0.366
 init_scf_run                         1  3.0    0.000    0.000    0.354    0.354
 dbcsr_finalize                   11552 11.4    0.040    0.093    0.180    0.354
 multiply_cannon_metrocomm4       47226 13.3    0.139    0.147    0.284    0.347
 cp_fm_trace_a1b1t1_aa            13090  8.0    0.062    0.065    0.332    0.336
 scf_env_initial_rho_setup            1  4.0    0.000    0.000    0.302    0.303
 prepare_dr1dr                     1440 11.1    0.240    0.283    0.240    0.283
 dbcsr_add_d                       4734  7.0    0.004    0.005    0.042    0.282
 make_images_sizes                 2778 13.3    0.003    0.003    0.263    0.279
 dbcsr_add_anytype                 4734  8.0    0.006    0.038    0.037    0.277
 mp_alltoall_i44                   2778 14.3    0.260    0.276    0.260    0.276
 multiply_cannon_metrocomm1       50004 13.3    0.057    0.060    0.166    0.272
 multiply_cannon_metrocomm2       45837 13.3    0.136    0.143    0.244    0.262
 scale_and_distribute               446 11.4    0.230    0.249    0.230    0.249
 mp_cart_sub                       2186 11.3    0.232    0.234    0.232    0.234
 qs_init_subsys                       1  2.0    0.005    0.006    0.230    0.231
 dbcsr_col_vec_to_rep_row          3124  8.0    0.022    0.025    0.151    0.216
 qs_env_setup                         1  3.0    0.000    0.000    0.203    0.208
 multiply_cannon_multrec          50004 13.3    0.073    0.202    0.079    0.208
 qs_env_rebuild_pw_env                2  3.5    0.000    0.000    0.202    0.207
 pw_env_rebuild                       1  5.0    0.001    0.001    0.201    0.206
 mp_cart_create                    1988 10.6    0.164    0.196    0.165    0.198
 rs_scatter_matrices                225  9.9    0.003    0.005    0.187    0.195
 dbcsr_rep_row_to_rep_col_vec      3124  8.0    0.016    0.019    0.084    0.194
 dbcsr_merge_all                   9785 12.4    0.078    0.143    0.102    0.193
 dbcsr_create_new                 41292 11.1    0.132    0.137    0.171    0.177
 mp_allgather_i34                  1389 12.3    0.143    0.170    0.143    0.170
 pw_grid_setup                        4  6.0    0.000    0.000    0.163    0.168
 pw_grid_setup_internal               4  7.0    0.003    0.004    0.163    0.168
 make_images_data                  2778 13.3    0.035    0.048    0.086    0.158
 cp_fm_redistribute_start           113  8.2    0.111    0.117    0.139    0.153
 vxc_of_r_new                       504  9.0    0.000    0.023    0.002    0.152
 mp_irecv_dv                     147041 13.8    0.104    0.149    0.104    0.149
 cp_fm_cholesky_decompose            20  8.0    0.135    0.135    0.135    0.135
 mp_bcast_dv                       3237  9.0    0.070    0.133    0.070    0.133
 dbcsr_iterator_start             60620 10.2    0.072    0.100    0.088    0.128
 tddfpt_compute_ritz_vects            8  7.0    0.006    0.006    0.125    0.125
 pw_scale                           572  9.5    0.103    0.121    0.103    0.121
 cp_fm_triangular_multiply           60  8.0    0.119    0.120    0.119    0.120
 create_kernel_env                    1  6.0    0.000    0.000    0.106    0.120
 xc_prep_2nd_deriv                    1  7.0    0.000    0.000    0.106    0.120
 dbcsr_copy                       16000  8.3    0.055    0.060    0.101    0.109
 cp_fm_triangular_invert             20  8.0    0.105    0.106    0.105    0.106
 dbcsr_special_finalize            6945 13.3    0.027    0.028    0.078    0.103
 tddfpt_orthogonalize_psi1_psi0       9  6.9    0.000    0.000    0.090    0.101
 cube_transpose_2                   450 13.9    0.009    0.010    0.090    0.097
 cube_transpose_1                   446 14.0    0.007    0.009    0.080    0.087
 mp_isend_iv                     101254 14.3    0.075    0.084    0.075    0.084
 dbcsr_iterator_stop              60620 10.2    0.053    0.069    0.064    0.083
 cp_fm_symm                          63  7.0    0.075    0.080    0.075    0.080
 copy_fm_to_dbcsr_bc               2253 10.6    0.026    0.028    0.075    0.079
 dbcsr_work_create                17822 12.5    0.032    0.049    0.048    0.076
 mp_bcast_iv_src                    356  7.0    0.015    0.076    0.015    0.076
 mp_bcast_iv                        381  7.6    0.038    0.075    0.038    0.075
 pw_grid_sort                         4  8.0    0.044    0.045    0.068    0.070
 dbcsr_destroy                    34985 10.7    0.044    0.046    0.063    0.069
 dbcsr_merge_single_wm             6945 14.3    0.034    0.042    0.042    0.067
 dbcsr_data_release              201410 12.1    0.051    0.066    0.051    0.066
 dbcsr_data_new                  121577 12.5    0.051    0.064    0.051    0.064
 cp_fm_power                          1  6.0    0.000    0.000    0.063    0.063
 dbcsr_work_destroy_all           17822 13.4    0.029    0.045    0.039    0.062
 dbcsr_make_images_dense            766 11.7    0.014    0.016    0.038    0.062
 scf_post_calculation_gpw             1  3.0    0.000    0.000    0.058    0.059
 write_available_results              1  4.0    0.000    0.000    0.058    0.058
 write_mo_free_results                1  5.0    0.003    0.004    0.058    0.058
 mp_cart_rank                    193140 10.9    0.050    0.057    0.050    0.057
 tddfpt_is_nonorthogonal_psi1_p       7  7.0    0.000    0.001    0.052    0.052
 cp_fm_write_unformatted             24  7.0    0.026    0.042    0.028    0.049
 mp_irecv_iv                     102260 14.3    0.041    0.048    0.041    0.048
 mixing_init                          1  5.0    0.041    0.044    0.045    0.045
 mp_sum_im                          118  9.0    0.034    0.044    0.034    0.044
 create_fast_row_vec_access        6248  8.0    0.026    0.029    0.039    0.043
 create_fast_col_vec_access        6248  8.0    0.025    0.028    0.039    0.042
 dbcsr_make_dense_low              1915 12.7    0.009    0.010    0.015    0.039
 -------------------------------------------------------------------------------

 The number of warnings for this run is : 1
 
 -------------------------------------------------------------------------------
  **** **** ******  **  PROGRAM ENDED AT                 2025-04-02 20:30:31.476
 ***** ** ***  *** **   PROGRAM RAN ON                              i08r03c06s08
 **    ****   ******    PROGRAM RAN BY                                   di38fab
 ***** **    ** ** **   PROGRAM PROCESS ID                                411469
  **** **  *******  **  PROGRAM STOPPED IN /hppfs/scratch/04/di38fab/07_MOL_non_
                                           aug/05_MOL_non_aug/05_MOL/aUKBqsEOTmq
                                           69kFe5R_nOg/5k_set_final_qzvp/WAQBOG/
                                           TZVPP/TDDFT
