 DBCSR| CPU Multiplication driver                                           XSMM (U)
 DBCSR| Multrec recursion limit                                              512 (U)
 DBCSR| Multiplication stack size                                           1000 (D)
 DBCSR| Maximum elements for images                                    UNLIMITED (U)
 DBCSR| Multiplicative factor virtual images                                   1 (U)
 DBCSR| Use multiplication densification                                       T (D)
 DBCSR| Multiplication size stacks                                             3 (U)
 DBCSR| Use memory pool for CPU allocation                                     F (U)
 DBCSR| Number of 3D layers                                               SINGLE (U)
 DBCSR| Use MPI memory allocation                                              F (U)
 DBCSR| Use RMA algorithm                                                      F (U)
 DBCSR| Use Communication thread                                               T (U)
 DBCSR| Communication thread load                                             60 (D)
 DBCSR| MPI: My process id                                                     0
 DBCSR| MPI: Number of processes                                              32
 DBCSR| OMP: Current number of threads                                         8
 DBCSR| OMP: Max number of threads                                             8
 DBCSR| Split modifier for TAS multiplication algorithm                  1.0E+00 (U)


  **** **** ******  **  PROGRAM STARTED AT               2025-06-23 15:32:07.567
 ***** ** ***  *** **   PROGRAM STARTED ON                              n2cn0701
 **    ****   ******    PROGRAM STARTED BY                              metdyn02
 ***** **    ** ** **   PROGRAM PROCESS ID                                453105
  **** **  *******  **  PROGRAM STARTED IN /scratch/hpc-prf-metdyn/metdyn02_Remi
                                           /10_MOL/05_MOL/aUKBqsEOTmq69kFe5R_nOg
                                           /5k_set_final_qzvp/SAZQOZ/mini-SZV/GW
                                           +BSE/RILIM

 CP2K| version string:                 CP2K version 2025.1 (Development Version)
 CP2K| source code revision number:                                  git:32ddf85
 CP2K| cp2kflags: omp libint fftw3 libxc libgrpp elpa parallel scalapack mpi_f08
 CP2K|             cosma xsmm plumed2 spglib libvori libbqb libvdwxc hdf5
 CP2K| is freely available from                            https://www.cp2k.org/
 CP2K| Program compiled at                         Mon May 19 11:32:37 CEST 2025
 CP2K| Program compiled on                                              n2login1
 CP2K| Program compiled for                                                local
 CP2K| Data directory path    /opt/software/pc2/EB-SW/software/CP2K/2024.1-foss-
 CP2K| Input file name                                                    GW.inp

 GLOBAL| Force Environment number                                              1
 GLOBAL| Basis set file name            /scratch/hpc-prf-metdyn/metdyn02_Remi/BA
 GLOBAL| Potential file name            /pc2/groups/hpc-prf-metdyn/metdyn02_Remi
 GLOBAL| MM Potential file name                                     MM_POTENTIAL
 GLOBAL| Coordinate file name                                      __STD_INPUT__
 GLOBAL| Method name                                                        CP2K
 GLOBAL| Project name                                                       MoS2
 GLOBAL| Run type                                                         ENERGY
 GLOBAL| FFT library                                                       FFTW3
 GLOBAL| Diagonalization library                                            ELPA
 GLOBAL| Cholesky decomposition library                                ScaLAPACK
 GLOBAL| DGEMM library                                                      BLAS
 GLOBAL| Minimum number of eigenvectors for ELPA usage                        16
 GLOBAL| Orthonormality check for eigenvectors                          DISABLED
 GLOBAL| Matrix multiplication library                                     COSMA
 GLOBAL| All-to-all communication in single precision                          F
 GLOBAL| FFTs using library dependent lengths                                  F
 GLOBAL| Grid backend                                                       AUTO
 GLOBAL| Global print level                                               MEDIUM
 GLOBAL| MPI I/O enabled                                                       T
 GLOBAL| Total number of message passing processes                            32
 GLOBAL| Number of threads for this process                                    8
 GLOBAL| This output is from process                                           0
 GLOBAL| OpenMP stack size per thread (OMP_STACKSIZE)                    default
 GLOBAL| CPU model name                          AMD EPYC 7763 64-Core Processor
 GLOBAL| CPUID                                                              1002

 MEMORY| system memory details [Kb]
 MEMORY|                        rank 0           min           max       average
 MEMORY| MemTotal            263897592     263897548     263897648     263897593
 MEMORY| MemFree             252491320     246756296     252685484     251101914
 MEMORY| Buffers                 80296         17604        124536         92551
 MEMORY| Cached                6191672       6191672      11887988       7578069
 MEMORY| Slab                  1747764       1473000       2089556       1784424
 MEMORY| SReclaimable           562004        314344        769708        551388
 MEMORY| MemLikelyFree       259325292     259125272     259478548     259323923


 *** Fundamental physical constants (SI units) ***

 *** Literature: B. J. Mohr and B. N. Taylor,
 ***             CODATA recommended values of the fundamental physical
 ***             constants: 2006, Web Version 5.1
 ***             http://physics.nist.gov/constants

 Speed of light in vacuum [m/s]                             2.99792458000000E+08
 Magnetic constant or permeability of vacuum [N/A**2]       1.25663706143592E-06
 Electric constant or permittivity of vacuum [F/m]          8.85418781762039E-12
 Planck constant (h) [J*s]                                  6.62606896000000E-34
 Planck constant (h-bar) [J*s]                              1.05457162825177E-34
 Elementary charge [C]                                      1.60217648700000E-19
 Electron mass [kg]                                         9.10938215000000E-31
 Electron g factor [ ]                                     -2.00231930436220E+00
 Proton mass [kg]                                           1.67262163700000E-27
 Fine-structure constant                                    7.29735253760000E-03
 Rydberg constant [1/m]                                     1.09737315685270E+07
 Avogadro constant [1/mol]                                  6.02214179000000E+23
 Boltzmann constant [J/K]                                   1.38065040000000E-23
 Atomic mass unit [kg]                                      1.66053878200000E-27
 Bohr radius [m]                                            5.29177208590000E-11

 *** Conversion factors ***

 [u] -> [a.u.]                                              1.82288848426455E+03
 [Angstrom] -> [Bohr] = [a.u.]                              1.88972613288564E+00
 [a.u.] = [Bohr] -> [Angstrom]                              5.29177208590000E-01
 [a.u.] -> [s]                                              2.41888432650478E-17
 [a.u.] -> [fs]                                             2.41888432650478E-02
 [a.u.] -> [J]                                              4.35974393937059E-18
 [a.u.] -> [N]                                              8.23872205491840E-08
 [a.u.] -> [K]                                              3.15774647902944E+05
 [a.u.] -> [kJ/mol]                                         2.62549961709828E+03
 [a.u.] -> [kcal/mol]                                       6.27509468713739E+02
 [a.u.] -> [Pa]                                             2.94210107994716E+13
 [a.u.] -> [bar]                                            2.94210107994716E+08
 [a.u.] -> [atm]                                            2.90362800883016E+08
 [a.u.] -> [eV]                                             2.72113838565563E+01
 [a.u.] -> [Hz]                                             6.57968392072181E+15
 [a.u.] -> [1/cm] (wave numbers)                            2.19474631370540E+05
 [a.u./Bohr**2] -> [1/cm]                                   5.14048714338585E+03
 

 CELL_TOP| Volume [angstrom^3]:                                     27000.000000
 CELL_TOP| Vector a [angstrom    30.000     0.000     0.000   |a| =    30.000000
 CELL_TOP| Vector b [angstrom     0.000    30.000     0.000   |b| =    30.000000
 CELL_TOP| Vector c [angstrom     0.000     0.000    30.000   |c| =    30.000000
 CELL_TOP| Angle (b,c), alpha [degree]:                                90.000000
 CELL_TOP| Angle (a,c), beta  [degree]:                                90.000000
 CELL_TOP| Angle (a,b), gamma [degree]:                                90.000000
 CELL_TOP| Numerically orthorhombic:                                         YES
 CELL_TOP| Periodicity                                                      NONE

 GENERATE|  Preliminary Number of Bonds generated:                             0
 GENERATE|  Achieved consistency in connectivity generation.

 CELL| Volume [angstrom^3]:                                         27000.000000
 CELL| Vector a [angstrom]:      30.000     0.000     0.000   |a| =    30.000000
 CELL| Vector b [angstrom]:       0.000    30.000     0.000   |b| =    30.000000
 CELL| Vector c [angstrom]:       0.000     0.000    30.000   |c| =    30.000000
 CELL| Angle (b,c), alpha [degree]:                                    90.000000
 CELL| Angle (a,c), beta  [degree]:                                    90.000000
 CELL| Angle (a,b), gamma [degree]:                                    90.000000
 CELL| Numerically orthorhombic:                                             YES
 CELL| Periodicity                                                          NONE

 CELL_REF| Volume [angstrom^3]:                                     27000.000000
 CELL_REF| Vector a [angstrom    30.000     0.000     0.000   |a| =    30.000000
 CELL_REF| Vector b [angstrom     0.000    30.000     0.000   |b| =    30.000000
 CELL_REF| Vector c [angstrom     0.000     0.000    30.000   |c| =    30.000000
 CELL_REF| Angle (b,c), alpha [degree]:                                90.000000
 CELL_REF| Angle (a,c), beta  [degree]:                                90.000000
 CELL_REF| Angle (a,b), gamma [degree]:                                90.000000
 CELL_REF| Numerically orthorhombic:                                         YES
 CELL_REF| Periodicity                                                      NONE

 *******************************************************************************
 *******************************************************************************
 **                                                                           **
 **     #####                         ##              ##                      **
 **    ##   ##            ##          ##              ##                      **
 **   ##     ##                       ##            ######                    **
 **   ##     ##  ##   ##  ##   #####  ##  ##   ####   ##    #####    #####    **
 **   ##     ##  ##   ##  ##  ##      ## ##   ##      ##   ##   ##  ##   ##   **
 **   ##  ## ##  ##   ##  ##  ##      ####     ###    ##   ######   ######    **
 **    ##  ###   ##   ##  ##  ##      ## ##      ##   ##   ##       ##        **
 **     #######   #####   ##   #####  ##  ##  ####    ##    #####   ##        **
 **           ##                                                    ##        **
 **                                                                           **
 **                                                ... make the atoms dance   **
 **                                                                           **
 **            Copyright (C) by CP2K developers group (2000-2025)             **
 **                      J. Chem. Phys. 152, 194103 (2020)                    **
 **                                                                           **
 *******************************************************************************

 DFT| Spin restricted Kohn-Sham (RKS) calculation                            RKS
 DFT| Multiplicity                                                             1
 DFT| Number of spin states                                                    1
 DFT| Charge                                                                   0
 DFT| Self-interaction correction (SIC)                                       NO
 DFT| Cutoffs: density                                              1.000000E-10
 DFT|          gradient                                             1.000000E-10
 DFT|          tau                                                  1.000000E-10
 DFT|          cutoff_smoothing_range                               0.000000E+00
 DFT| XC density smoothing                                                  NONE
 DFT| XC derivatives                                                          PW

 FUNCTIONAL| PBE:
 FUNCTIONAL| J.P.Perdew, K.Burke, M.Ernzerhof, Phys. Rev. Letter, vol. 77, n 18,
 FUNCTIONAL|  pp. 3865-3868, (1996)sx=0.750sc=1.000{spin unpolarized}           


 QS| Method:                                                                GAPW
 QS| Density plane wave grid type                        NON-SPHERICAL FULLSPACE
 QS| Number of grid levels:                                                    4
 QS| Density cutoff [a.u.]:                                                250.0
 QS| Multi grid cutoff [a.u.]: 1) grid level                               250.0
 QS|                           2) grid level                                83.3
 QS|                           3) grid level                                27.8
 QS|                           4) grid level                                 9.3
 QS| Grid level progression factor:                                          3.0
 QS| Relative density cutoff [a.u.]:                                        50.0
 QS| Interaction thresholds: eps_pgf_orb:                                1.0E-12
 QS|                         eps_filter_matrix:                          0.0E+00
 QS|                         eps_core_charge:                            1.0E-14
 QS|                         eps_rho_gspace:                             1.0E-12
 QS|                         eps_rho_rspace:                             1.0E-12
 QS|                         eps_gvg_rspace:                             1.0E-06
 QS|                         eps_ppl:                                    1.0E-02
 QS|                         eps_ppnl:                                   1.0E-08
 QS| GAPW|      One center basis from orbital basis primitives
 QS| GAPW|                   eps_fit:                                    1.0E-04
 QS| GAPW|                   eps_iso:                                    1.0E-12
 QS| GAPW|                   eps_svd:                                    1.0E-08
 QS| GAPW|                   eps_cpc:                                    1.0E-12
 QS| GAPW|   atom-r-grid: quadrature:                                     GC_LOG
 QS| GAPW|      atom-s-grid:  max l :                                          2
 QS| GAPW|      max_l_rho0 :                                                   2


 ATOMIC KIND INFORMATION

  1. Atomic kind: Cl                                    Number of atoms:       2

     Orbital Basis Set                                    aug-SZV-MOLOPT-ae-mini

       Number of orbital shell sets:                                           3
       Number of orbital shells:                                               7
       Number of primitive Cartesian functions:                               10
       Number of Cartesian basis functions:                                   13
       Number of spherical basis functions:                                   13
       Norm type:                                                              2

       Normalised Cartesian orbitals:

                        Set   Shell   Orbital            Exponent    Coefficient

                          1       1    1s                2.129386      -0.275914
                                                         0.594093       0.108800
                                                         0.232524       0.214880
                                                         0.080000       0.000000

                          1       2    2s                2.129386       0.000000
                                                         0.594093       0.898056
                                                         0.232524      -0.359822
                                                         0.080000      -0.008509

                          1       3    2px               2.129386       0.038821
                                                         0.594093       0.442483
                                                         0.232524       0.106333
                                                         0.080000       0.000000
                          1       3    2py               2.129386       0.038821
                                                         0.594093       0.442483
                                                         0.232524       0.106333
                                                         0.080000       0.000000
                          1       3    2pz               2.129386       0.038821
                                                         0.594093       0.442483
                                                         0.232524       0.106333
                                                         0.080000       0.000000

                          1       4    3px               2.129386       0.000000
                                                         0.594093      -0.559037
                                                         0.232524      -0.109601
                                                         0.080000       0.030137
                          1       4    3py               2.129386       0.000000
                                                         0.594093      -0.559037
                                                         0.232524      -0.109601
                                                         0.080000       0.030137
                          1       4    3pz               2.129386       0.000000
                                                         0.594093      -0.559037
                                                         0.232524      -0.109601
                                                         0.080000       0.030137

                          2       1    1s               38.960419      -1.111052
                                                         9.053563       1.486126
                                                         2.944500       1.121601

                          2       2    2px              38.960419      21.632683
                                                         9.053563      13.603241
                                                         2.944500       2.154979
                          2       2    2py              38.960419      21.632683
                                                         9.053563      13.603241
                                                         2.944500       2.154979
                          2       2    2pz              38.960419      21.632683
                                                         9.053563      13.603241
                                                         2.944500       2.154979

                          3       1    1s              601.345610      13.356745
                                                       109.535850      12.918056
                                                        29.644670       4.025998

     RI Auxiliary Basis Set             RI_aug-SZV-MOLOPT-ae-mini_N_RI_050_s_p_d

       Number of orbital shell sets:                                          18
       Number of orbital shells:                                              18
       Number of primitive Cartesian functions:                               18
       Number of Cartesian basis functions:                                   55
       Number of spherical basis functions:                                   50
       Norm type:                                                              2

       Normalised Cartesian orbitals:

                        Set   Shell   Orbital            Exponent    Coefficient

                          1       1    1s                0.200000       0.213149

                          2       1    8px               0.200000       0.190646
                          2       1    8py               0.200000       0.190646
                          2       1    8pz               0.200000       0.190646

                          3       1   14dx2              0.200000       0.098449
                          3       1   14dxy              0.200000       0.170519
                          3       1   14dxz              0.200000       0.170519
                          3       1   14dy2              0.200000       0.098449
                          3       1   14dyz              0.200000       0.170519
                          3       1   14dz2              0.200000       0.098449

                          4       1    2s                0.323005       0.305363

                          5       1    9px               0.355504       0.391287
                          5       1    9py               0.355504       0.391287
                          5       1    9pz               0.355504       0.391287

                          6       1   15dx2              0.410486       0.346483
                          6       1   15dxy              0.410486       0.600125
                          6       1   15dxz              0.410486       0.600125
                          6       1   15dy2              0.410486       0.346483
                          6       1   15dyz              0.410486       0.600125
                          6       1   15dz2              0.410486       0.346483

                          7       1    3s                0.521660       0.437473

                          8       1   10px               0.631916       0.803090
                          8       1   10py               0.631916       0.803090
                          8       1   10pz               0.631916       0.803090

                          9       1    4s                0.842494       0.626737

                         10       1   16dx2              0.842494       1.219413
                         10       1   16dxy              0.842494       2.112086
                         10       1   16dxz              0.842494       2.112086
                         10       1   16dy2              0.842494       1.219413
                         10       1   16dyz              0.842494       2.112086
                         10       1   16dz2              0.842494       1.219413

                         11       1   11px               1.123243       1.648286
                         11       1   11py               1.123243       1.648286
                         11       1   11pz               1.123243       1.648286

                         12       1    5s                1.360647       0.897882

                         13       1   17dx2              1.729159       4.291612
                         13       1   17dxy              1.729159       7.433290
                         13       1   17dxz              1.729159       7.433290
                         13       1   17dy2              1.729159       4.291612
                         13       1   17dyz              1.729159       7.433290
                         13       1   17dz2              1.729159       4.291612

                         14       1   12px               1.996588       3.382990
                         14       1   12py               1.996588       3.382990
                         14       1   12pz               1.996588       3.382990

                         15       1    6s                2.197477       1.286333

                         16       1   18dx2              3.548977      15.103930
                         16       1   18dxy              3.548977      26.160774
                         16       1   18dxz              3.548977      26.160774
                         16       1   18dy2              3.548977      15.103930
                         16       1   18dyz              3.548977      26.160774
                         16       1   18dz2              3.548977      15.103930

                         17       1    7s                3.548977       1.842839

                         18       1   13px               3.548977       6.943349
                         18       1   13py               3.548977       6.943349
                         18       1   13pz               3.548977       6.943349

       Atomic covalent radius [Angstrom]:                                  0.990

       Atomic van der Waals radius [Angstrom]:                             1.750

     The atoms of this atomic kind are PAW atoms (GAPW):
       Hard Gaussian function radius:                                      1.512
       Rho0 radius:                                                        1.512
       Maximum GTO radius used for PAW projector construction:            24.566

     GAPW Soft Basis Set                             aug-SZV-MOLOPT-ae-mini_soft

       Number of orbital shell sets:                                           3
       Number of orbital shells:                                               7
       Number of primitive Cartesian functions:                                5
       Number of Cartesian basis functions:                                   13
       Number of spherical basis functions:                                   13
       Norm type:                                                              2

       Normalised Cartesian orbitals:

                        Set   Shell   Orbital            Exponent    Coefficient

                          1       1    1s                2.129386      -0.275914
                                                         0.594093       0.108800
                                                         0.232524       0.214880
                                                         0.080000       0.000000

                          1       2    2s                2.129386       0.000000
                                                         0.594093       0.898056
                                                         0.232524      -0.359822
                                                         0.080000      -0.008509

                          1       3    2px               2.129386       0.038821
                                                         0.594093       0.442483
                                                         0.232524       0.106333
                                                         0.080000       0.000000
                          1       3    2py               2.129386       0.038821
                                                         0.594093       0.442483
                                                         0.232524       0.106333
                                                         0.080000       0.000000
                          1       3    2pz               2.129386       0.038821
                                                         0.594093       0.442483
                                                         0.232524       0.106333
                                                         0.080000       0.000000

                          1       4    3px               2.129386       0.000000
                                                         0.594093      -0.559037
                                                         0.232524      -0.109601
                                                         0.080000       0.030137
                          1       4    3py               2.129386       0.000000
                                                         0.594093      -0.559037
                                                         0.232524      -0.109601
                                                         0.080000       0.030137
                          1       4    3pz               2.129386       0.000000
                                                         0.594093      -0.559037
                                                         0.232524      -0.109601
                                                         0.080000       0.030137

                          2       1    1s                2.944500       1.121601

                          2       2    2px               2.944500       2.154979
                          2       2    2py               2.944500       2.154979
                          2       2    2pz               2.944500       2.154979

                          3       1    1s         

     AE Potential information for                                            ALL

       Description:                                       All-electron potential
                                          Krack, Parrinello, PCCP 2, 2105 (2000)

       Gaussian exponent of the core charge distribution:               2.974420
       Electronic configuration (s p d ...):                           6  11   0

  2. Atomic kind: C                                     Number of atoms:       8

     Orbital Basis Set                                    aug-SZV-MOLOPT-ae-mini

       Number of orbital shell sets:                                           2
       Number of orbital shells:                                               5
       Number of primitive Cartesian functions:                                7
       Number of Cartesian basis functions:                                    9
       Number of spherical basis functions:                                    9
       Norm type:                                                              2

       Normalised Cartesian orbitals:

                        Set   Shell   Orbital            Exponent    Coefficient

                          1       1    2s                0.114558       0.000000
                                                         0.222289       0.161536
                                                         0.683483       0.214036
                                                         2.941249      -0.160017

                          1       2    3s                0.114558       0.000272
                                                         0.222289       0.256636
                                                         0.683483      -0.079244
                                                         2.941249       0.000032

                          1       3    3px               0.114558       0.000000
                                                         0.222289       0.085276
                                                         0.683483       0.538304
                                                         2.941249       0.856044
                          1       3    3py               0.114558       0.000000
                                                         0.222289       0.085276
                                                         0.683483       0.538304
                                                         2.941249       0.856044
                          1       3    3pz               0.114558       0.000000
                                                         0.222289       0.085276
                                                         0.683483       0.538304
                                                         2.941249       0.856044

                          1       4    4px               0.114558      -0.035043
                                                         0.222289      -0.159067
                                                         0.683483       0.106927
                                                         2.941249      -0.036832
                          1       4    4py               0.114558      -0.035043
                                                         0.222289      -0.159067
                                                         0.683483       0.106927
                                                         2.941249      -0.036832
                          1       4    4pz               0.114558      -0.035043
                                                         0.222289      -0.159067
                                                         0.683483       0.106927
                                                         2.941249      -0.036832

                          2       1    1s               71.616837       2.707801
                                                        13.045096       2.618883
                                                         3.530512       0.816191

     RI Auxiliary Basis Set             RI_aug-SZV-MOLOPT-ae-mini_N_RI_055_s_p_d

       Number of orbital shell sets:                                          19
       Number of orbital shells:                                              19
       Number of primitive Cartesian functions:                               19
       Number of Cartesian basis functions:                                   61
       Number of spherical basis functions:                                   55
       Norm type:                                                              2

       Normalised Cartesian orbitals:

                        Set   Shell   Orbital            Exponent    Coefficient

                          1       1    1s                0.286395       0.279019

                          2       1    8px               0.286395       0.298639
                          2       1    8py               0.286395       0.298639
                          2       1    8pz               0.286395       0.298639

                          3       1   14dx2              0.286395       0.184544
                          3       1   14dxy              0.286395       0.319639
                          3       1   14dxz              0.286395       0.319639
                          3       1   14dy2              0.286395       0.184544
                          3       1   14dyz              0.286395       0.319639
                          3       1   14dz2              0.286395       0.184544

                          4       1    2s                0.459764       0.397934

                          5       1    9px               0.505415       0.607436
                          5       1    9py               0.505415       0.607436
                          5       1    9pz               0.505415       0.607436

                          6       1   15dx2              0.505415       0.498648
                          6       1   15dxy              0.505415       0.863684
                          6       1   15dxz              0.505415       0.863684
                          6       1   15dy2              0.505415       0.498648
                          6       1   15dyz              0.505415       0.863684
                          6       1   15dz2              0.505415       0.498648

                          7       1    3s                0.738081       0.567529

                          8       1   10px               0.891931       1.235533
                          8       1   10py               0.891931       1.235533
                          8       1   10pz               0.891931       1.235533

                          9       1   16dx2              0.891931       1.347378
                          9       1   16dxy              0.891931       2.333728
                          9       1   16dxz              0.891931       2.333728
                          9       1   16dy2              0.891931       1.347378
                          9       1   16dyz              0.891931       2.333728
                          9       1   16dz2              0.891931       1.347378

                         10       1    4s                1.184876       0.809403

                         11       1   11px               1.574035       2.513091
                         11       1   11py               1.574035       2.513091
                         11       1   11pz               1.574035       2.513091

                         12       1   17dx2              1.574035       3.640699
                         12       1   17dxy              1.574035       6.305876
                         12       1   17dxz              1.574035       6.305876
                         12       1   17dy2              1.574035       3.640699
                         12       1   17dyz              1.574035       6.305876
                         12       1   17dz2              1.574035       3.640699

                         13       1    5s                1.902139       1.154361

                         14       1   12px               2.777778       5.111660
                         14       1   12py               2.777778       5.111660
                         14       1   12pz               2.777778       5.111660

                         15       1   18dx2              2.777778       9.837395
                         15       1   18dxy              2.777778      17.038868
                         15       1   18dxz              2.777778      17.038868
                         15       1   18dy2              2.777778       9.837395
                         15       1   18dyz              2.777778      17.038868
                         15       1   18dz2              2.777778       9.837395

                         16       1    6s                3.053594       1.646337

                         17       1    7s                4.902082       2.347986

                         18       1   13px               4.902082      10.397185
                         18       1   13py               4.902082      10.397185
                         18       1   13pz               4.902082      10.397185

                         19       1   19dx2              4.902082      26.581250
                         19       1   19dxy              4.902082      46.040076
                         19       1   19dxz              4.902082      46.040076
                         19       1   19dy2              4.902082      26.581250
                         19       1   19dyz              4.902082      46.040076
                         19       1   19dz2              4.902082      26.581250

       Atomic covalent radius [Angstrom]:                                  0.770

       Atomic van der Waals radius [Angstrom]:                             1.700

     The atoms of this atomic kind are PAW atoms (GAPW):
       Hard Gaussian function radius:                                      1.512
       Rho0 radius:                                                        1.512
       Maximum GTO radius used for PAW projector construction:            24.566

     GAPW Soft Basis Set                             aug-SZV-MOLOPT-ae-mini_soft

       Number of orbital shell sets:                                           2
       Number of orbital shells:                                               5
       Number of primitive Cartesian functions:                                5
       Number of Cartesian basis functions:                                    9
       Number of spherical basis functions:                                    9
       Norm type:                                                              2

       Normalised Cartesian orbitals:

                        Set   Shell   Orbital            Exponent    Coefficient

                          1       1    2s                0.114558       0.000000
                                                         0.222289       0.161536
                                                         0.683483       0.214036
                                                         2.941249      -0.160017

                          1       2    3s                0.114558       0.000272
                                                         0.222289       0.256636
                                                         0.683483      -0.079244
                                                         2.941249       0.000032

                          1       3    3px               0.114558       0.000000
                                                         0.222289       0.085276
                                                         0.683483       0.538304
                                                         2.941249       0.856044
                          1       3    3py               0.114558       0.000000
                                                         0.222289       0.085276
                                                         0.683483       0.538304
                                                         2.941249       0.856044
                          1       3    3pz               0.114558       0.000000
                                                         0.222289       0.085276
                                                         0.683483       0.538304
                                                         2.941249       0.856044

                          1       4    4px               0.114558      -0.035043
                                                         0.222289      -0.159067
                                                         0.683483       0.106927
                                                         2.941249      -0.036832
                          1       4    4py               0.114558      -0.035043
                                                         0.222289      -0.159067
                                                         0.683483       0.106927
                                                         2.941249      -0.036832
                          1       4    4pz               0.114558      -0.035043
                                                         0.222289      -0.159067
                                                         0.683483       0.106927
                                                         2.941249      -0.036832

                          2       1    1s                3.530512       0.816191

     AE Potential information for                                            ALL

       Description:                                       All-electron potential
                                          Krack, Parrinello, PCCP 2, 2105 (2000)

       Gaussian exponent of the core charge distribution:               4.109048
       Electronic configuration (s p d ...):                           4   2   0

  3. Atomic kind: H                                     Number of atoms:       2

     Orbital Basis Set                                    aug-SZV-MOLOPT-ae-mini

       Number of orbital shell sets:                                           1
       Number of orbital shells:                                               4
       Number of primitive Cartesian functions:                                7
       Number of Cartesian basis functions:                                    6
       Number of spherical basis functions:                                    6
       Norm type:                                                              2

       Normalised Cartesian orbitals:

                        Set   Shell   Orbital            Exponent    Coefficient

                          1       1    1s                0.065428       0.000000
                                                         0.100112       0.016532
                                                         0.243077       0.102760
                                                         0.625955       0.185857
                                                         1.822143       0.188385
                                                         6.513144       0.143430
                                                        35.523221       0.095030

                          1       2    2s                0.065428       0.083549
                                                         0.100112       0.009605
                                                         0.243077       0.002524
                                                         0.625955       0.013457
                                                         1.822143       0.000000
                                                         6.513144       0.000000
                                                        35.523221       0.000000

                          1       3    3s                0.065428       0.037407
                                                         0.100112      -0.169070
                                                         0.243077      -0.018899
                                                         0.625955       0.012806
                                                         1.822143       0.000000
                                                         6.513144       0.000000
                                                        35.523221       0.000000

                          1       4    2px               0.065428       0.059908
                                                         0.100112      -0.023770
                                                         0.243077       0.000032
                                                         0.625955       0.017779
                                                         1.822143       0.000000
                                                         6.513144       0.000000
                                                        35.523221       0.000000
                          1       4    2py               0.065428       0.059908
                                                         0.100112      -0.023770
                                                         0.243077       0.000032
                                                         0.625955       0.017779
                                                         1.822143       0.000000
                                                         6.513144       0.000000
                                                        35.523221       0.000000
                          1       4    2pz               0.065428       0.059908
                                                         0.100112      -0.023770
                                                         0.243077       0.000032
                                                         0.625955       0.017779
                                                         1.822143       0.000000
                                                         6.513144       0.000000
                                                        35.523221       0.000000

     RI Auxiliary Basis Set             RI_aug-SZV-MOLOPT-ae_N_RI_035_s_p_d_f_g_

       Number of orbital shell sets:                                          15
       Number of orbital shells:                                              15
       Number of primitive Cartesian functions:                               15
       Number of Cartesian basis functions:                                   37
       Number of spherical basis functions:                                   35
       Norm type:                                                              2

       Normalised Cartesian orbitals:

                        Set   Shell   Orbital            Exponent    Coefficient

                          1       1    1s                0.236911       0.242019

                          2       1    8px               0.347892       0.380843
                          2       1    8py               0.347892       0.380843
                          2       1    8pz               0.347892       0.380843

                          3       1    2s                0.423897       0.374417

                          4       1    9px               0.493166       0.589089
                          4       1    9py               0.493166       0.589089
                          4       1    9pz               0.493166       0.589089

                          5       1   14dx2              0.625366       0.723843
                          5       1   14dxy              0.625366       1.253733
                          5       1   14dxz              0.625366       1.253733
                          5       1   14dy2              0.625366       0.723843
                          5       1   14dyz              0.625366       1.253733
                          5       1   14dz2              0.625366       0.723843

                          6       1   10px               0.699103       0.911206
                          6       1   10py               0.699103       0.911206
                          6       1   10pz               0.699103       0.911206

                          7       1    3s                0.758464       0.579244

                          8       1   11px               0.991036       1.409457
                          8       1   11py               0.991036       1.409457
                          8       1   11pz               0.991036       1.409457

                          9       1   15dx2              1.286053       2.556305
                          9       1   15dxy              1.286053       4.427650
                          9       1   15dxz              1.286053       4.427650
                          9       1   15dy2              1.286053       2.556305
                          9       1   15dyz              1.286053       4.427650
                          9       1   15dz2              1.286053       2.556305

                         10       1    4s                1.357095       0.896123

                         11       1   12px               1.404875       2.180155
                         11       1   12py               1.404875       2.180155
                         11       1   12pz               1.404875       2.180155

                         12       1   13px               1.991527       3.372273
                         12       1   13py               1.991527       3.372273
                         12       1   13pz               1.991527       3.372273

                         13       1    5s                2.428204       1.386354

                         14       1    6s                4.344704       2.144768

                         15       1    7s                7.773833       3.318077

       Atomic covalent radius [Angstrom]:                                  0.320

       Atomic van der Waals radius [Angstrom]:                             1.090

     The atoms of this atomic kind are PAW atoms (GAPW):
       Hard Gaussian function radius:                                      1.200
       Rho0 radius:                                                        1.200
       Maximum GTO radius used for PAW projector construction:            24.566

     GAPW Soft Basis Set                             aug-SZV-MOLOPT-ae-mini_soft

       Number of orbital shell sets:                                           1
       Number of orbital shells:                                               4
       Number of primitive Cartesian functions:                                6
       Number of Cartesian basis functions:                                    6
       Number of spherical basis functions:                                    6
       Norm type:                                                              2

       Normalised Cartesian orbitals:

                        Set   Shell   Orbital            Exponent    Coefficient

                          1       1    1s                0.065428       0.000000
                                                         0.100112       0.016532
                                                         0.243077       0.102760
                                                         0.625955       0.185857
                                                         1.822143       0.188385
                                                         6.513144       0.000000

                          1       2    2s                0.065428       0.083549
                                                         0.100112       0.009605
                                                         0.243077       0.002524
                                                         0.625955       0.013457
                                                         1.822143       0.000000
                                                         6.513144       0.000000

                          1       3    3s                0.065428       0.037407
                                                         0.100112      -0.169070
                                                         0.243077      -0.018899
                                                         0.625955       0.012806
                                                         1.822143       0.000000
                                                         6.513144       0.000000

                          1       4    2px               0.065428       0.059908
                                                         0.100112      -0.023770
                                                         0.243077       0.000032
                                                         0.625955       0.017779
                                                         1.822143       0.000000
                                                         6.513144       0.000000
                          1       4    2py               0.065428       0.059908
                                                         0.100112      -0.023770
                                                         0.243077       0.000032
                                                         0.625955       0.017779
                                                         1.822143       0.000000
                                                         6.513144       0.000000
                          1       4    2pz               0.065428       0.059908
                                                         0.100112      -0.023770
                                                         0.243077       0.000032
                                                         0.625955       0.017779
                                                         1.822143       0.000000
                                                         6.513144       0.000000

     AE Potential information for                                            ALL

       Description:                                       All-electron potential
                                          Krack, Parrinello, PCCP 2, 2105 (2000)

       Gaussian exponent of the core charge distribution:              12.500000
       Electronic configuration (s p d ...):                           1   0   0

  4. Atomic kind: O                                     Number of atoms:       3

     Orbital Basis Set                                    aug-SZV-MOLOPT-ae-mini

       Number of orbital shell sets:                                           2
       Number of orbital shells:                                               5
       Number of primitive Cartesian functions:                                7
       Number of Cartesian basis functions:                                    9
       Number of spherical basis functions:                                    9
       Norm type:                                                              2

       Normalised Cartesian orbitals:

                        Set   Shell   Orbital            Exponent    Coefficient

                          1       1    1s                0.162491       0.000000
                                                         0.380388       0.241685
                                                         1.169596       0.320234
                                                         5.033151      -0.239413

                          1       2    2s                0.162491       0.289618
                                                         0.380388      -0.257800
                                                         1.169596      -0.000000
                                                         5.033151      -0.000284

                          1       3    2px               0.162491       0.000000
                                                         0.380388       0.166902
                                                         1.169596       1.053568
                                                         5.033151       1.675450
                          1       3    2py               0.162491       0.000000
                                                         0.380388       0.166902
                                                         1.169596       1.053568
                                                         5.033151       1.675450
                          1       3    2pz               0.162491       0.000000
                                                         0.380388       0.166902
                                                         1.169596       1.053568
                                                         5.033151       1.675450

                          1       4    3px               0.162491       0.166510
                                                         0.380388      -0.081234
                                                         1.169596      -0.994066
                                                         5.033151       0.014231
                          1       4    3py               0.162491       0.166510
                                                         0.380388      -0.081234
                                                         1.169596      -0.994066
                                                         5.033151       0.014231
                          1       4    3pz               0.162491       0.166510
                                                         0.380388      -0.081234
                                                         1.169596      -0.994066
                                                         5.033151       0.014231

                          2       1    1s              130.709321       4.251922
                                                        23.808866       4.112298
                                                         6.443608       1.281622

     RI Auxiliary Basis Set             RI_aug-SZV-MOLOPT-ae-mini_N_RI_047_s_p_d

       Number of orbital shell sets:                                          17
       Number of orbital shells:                                              17
       Number of primitive Cartesian functions:                               17
       Number of Cartesian basis functions:                                   52
       Number of spherical basis functions:                                   47
       Norm type:                                                              2

       Normalised Cartesian orbitals:

                        Set   Shell   Orbital            Exponent    Coefficient

                          1       1    1s                0.406227       0.362649

                          2       1    8px               0.406227       0.462276
                          2       1    8py               0.406227       0.462276
                          2       1    8pz               0.406227       0.462276

                          3       1   13dx2              0.406228       0.340217
                          3       1   13dxy              0.406228       0.589273
                          3       1   13dxz              0.406228       0.589273
                          3       1   13dy2              0.406228       0.340217
                          3       1   13dyz              0.406228       0.589273
                          3       1   13dz2              0.406228       0.340217

                          4       1    2s                0.672857       0.529483

                          5       1    9px               0.865963       1.190732
                          5       1    9py               0.865963       1.190732
                          5       1    9pz               0.865963       1.190732

                          6       1   14dx2              0.865963       1.279479
                          6       1   14dxy              0.865963       2.216122
                          6       1   14dxz              0.865963       2.216122
                          6       1   14dy2              0.865963       1.279479
                          6       1   14dyz              0.865963       2.216122
                          6       1   14dz2              0.865963       1.279479

                          7       1    3s                1.114489       0.773067

                          8       1    4s                1.845989       1.128709

                          9       1   10px               1.845989       3.067089
                          9       1   10py               1.845989       3.067089
                          9       1   10pz               1.845989       3.067089

                         10       1   15dx2              1.845989       4.811830
                         10       1   15dxy              1.845989       8.334333
                         10       1   15dxz              1.845989       8.334333
                         10       1   15dy2              1.845989       4.811830
                         10       1   15dyz              1.845989       8.334333
                         10       1   15dz2              1.845989       4.811830

                         11       1    5s                3.057611       1.647960

                         12       1   11px               3.935128       7.900211
                         12       1   11py               3.935128       7.900211
                         12       1   11pz               3.935128       7.900211

                         13       1   16dx2              3.935128      18.096203
                         13       1   16dxy              3.935128      31.343543
                         13       1   16dxz              3.935128      31.343543
                         13       1   16dy2              3.935128      18.096203
                         13       1   16dyz              3.935128      31.343543
                         13       1   16dz2              3.935128      18.096203

                         14       1    6s                5.064487       2.406089

                         15       1    7s                8.388585       3.512988

                         16       1   12px               8.388585      20.349370
                         16       1   12py               8.388585      20.349370
                         16       1   12pz               8.388585      20.349370

                         17       1   17dx2              8.388585      68.055730
                         17       1   17dxy              8.388585     117.875982
                         17       1   17dxz              8.388585     117.875982
                         17       1   17dy2              8.388585      68.055730
                         17       1   17dyz              8.388585     117.875982
                         17       1   17dz2              8.388585      68.055730

       Atomic covalent radius [Angstrom]:                                  0.730

       Atomic van der Waals radius [Angstrom]:                             1.520

     The atoms of this atomic kind are PAW atoms (GAPW):
       Hard Gaussian function radius:                                      1.512
       Rho0 radius:                                                        1.512
       Maximum GTO radius used for PAW projector construction:            24.566

     GAPW Soft Basis Set                             aug-SZV-MOLOPT-ae-mini_soft

       Number of orbital shell sets:                                           2
       Number of orbital shells:                                               5
       Number of primitive Cartesian functions:                                3
       Number of Cartesian basis functions:                                    9
       Number of spherical basis functions:                                    9
       Norm type:                                                              2

       Normalised Cartesian orbitals:

                        Set   Shell   Orbital            Exponent    Coefficient

                          1       1    1s                0.162491       0.000000
                                                         0.380388       0.241685
                                                         1.169596       0.320234

                          1       2    2s                0.162491       0.289618
                                                         0.380388      -0.257800
                                                         1.169596      -0.000000

                          1       3    2px               0.162491       0.000000
                                                         0.380388       0.166902
                                                         1.169596       1.053568
                          1       3    2py               0.162491       0.000000
                                                         0.380388       0.166902
                                                         1.169596       1.053568
                          1       3    2pz               0.162491       0.000000
                                                         0.380388       0.166902
                                                         1.169596       1.053568

                          1       4    3px               0.162491       0.166510
                                                         0.380388      -0.081234
                                                         1.169596      -0.994066
                          1       4    3py               0.162491       0.166510
                                                         0.380388      -0.081234
                                                         1.169596      -0.994066
                          1       4    3pz               0.162491       0.166510
                                                         0.380388      -0.081234
                                                         1.169596      -0.994066

                          2       1    1s         

     AE Potential information for                                            ALL

       Description:                                       All-electron potential
                                          Krack, Parrinello, PCCP 2, 2105 (2000)

       Gaussian exponent of the core charge distribution:               8.154466
       Electronic configuration (s p d ...):                           4   4   0


 MOLECULE KIND INFORMATION


 All atoms are their own molecule, skipping detailed information


 TOTAL NUMBERS AND MAXIMUM NUMBERS

  Total number of            - Atomic kinds:                                   4
                             - Atoms:                                         15
                             - Shell sets:                                    30
                             - Shells:                                        77
                             - Primitive Cartesian functions:                111
                             - Cartesian basis functions:                    137
                             - Spherical basis functions:                    137

  Maximum angular momentum of the orbital basis functions:                     1


 MODULE QUICKSTEP: ATOMIC COORDINATES IN ANGSTROM

   Atom Kind Element         X             Y             Z       Z(eff)     Mass
      1    1 Cl   17     15.293582     12.630006     13.078962  17.0000  35.4530
      2    2 C     6     15.748689     14.730121     14.771897   6.0000  12.0107
      3    2 C     6     14.823574     13.903439     14.138364   6.0000  12.0107
      4    2 C     6     13.462440     14.134086     14.386572   6.0000  12.0107
      5    3 H     1     12.720956     13.500635     13.902632   1.0000   1.0079
      6    1 Cl   17     13.432600     17.240409     16.921038  17.0000  35.4530
      7    2 C     6     15.333810     15.757828     15.628454   6.0000  12.0107
      8    2 C     6     13.050025     15.155684     15.237938   6.0000  12.0107
      9    3 H     1     11.988039     15.316103     15.415963   1.0000   1.0079
     10    2 C     6     13.982229     15.987659     15.875366   6.0000  12.0107
     11    2 C     6     16.549042     16.443726     16.134557   6.0000  12.0107
     12    4 O     8     18.011961     14.063564     14.127943   8.0000  15.9994
     13    2 C     6     17.232144     14.751760     14.724032   6.0000  12.0107
     14    4 O     8     16.677045     17.369994     16.884679   8.0000  15.9994
     15    4 O     8     17.656871     15.798584     15.559450   8.0000  15.9994



 SCF PARAMETERS         Density guess:                                    ATOMIC
                        --------------------------------------------------------
                        max_scf:                                             500
                        max_scf_history:                                       0
                        max_diis:                                              4
                        --------------------------------------------------------
                        eps_scf:                                        1.00E-06
                        eps_scf_history:                                0.00E+00
                        eps_diis:                                       1.00E-01
                        eps_eigval:                                     1.00E-05
                        --------------------------------------------------------
                        level_shift [a.u.]:                             0.000000
                        added MOs                                        83    0
                        --------------------------------------------------------
                        Mixing method:                            BROYDEN_MIXING
                                                charge density mixing in g-space
                        --------------------------------------------------------
                        No outer SCF

 PW_GRID| Information for grid number                                          1
 PW_GRID| Grid distributed over                                    32 processors
 PW_GRID| Real space group dimensions                                    32    1
 PW_GRID| the grid is blocked:                                                NO
 PW_GRID| Cutoff [a.u.]                                                    250.0
 PW_GRID| spherical cutoff:                                                   NO
 PW_GRID|   Bounds   1           -202     202                Points:         405
 PW_GRID|   Bounds   2           -202     202                Points:         405
 PW_GRID|   Bounds   3           -202     202                Points:         405
 PW_GRID| Volume element (a.u.^3)  0.2743E-02     Volume (a.u.^3)    182205.0337
 PW_GRID| Grid span                                                    FULLSPACE
 PW_GRID|   Distribution                         Average         Max         Min
 PW_GRID|   G-Vectors                          2075941.4     2076030     2075625
 PW_GRID|   G-Rays                                5125.8        5126        5125
 PW_GRID|   Real Space Points                  2075941.4     2132325     1968300

 PW_GRID| Information for grid number                                          2
 PW_GRID| Number of the reference grid                                         1
 PW_GRID| Grid distributed over                                    32 processors
 PW_GRID| Real space group dimensions                                    32    1
 PW_GRID| the grid is blocked:                                                NO
 PW_GRID| Cutoff [a.u.]                                                     83.3
 PW_GRID| spherical cutoff:                                                   NO
 PW_GRID|   Bounds   1           -120     119                Points:         240
 PW_GRID|   Bounds   2           -120     119                Points:         240
 PW_GRID|   Bounds   3           -120     119                Points:         240
 PW_GRID| Volume element (a.u.^3)  0.1318E-01     Volume (a.u.^3)    182205.0337
 PW_GRID| Grid span                                                    FULLSPACE
 PW_GRID|   Distribution                         Average         Max         Min
 PW_GRID|   G-Vectors                           432000.0      432480      431760
 PW_GRID|   G-Rays                                1800.0        1802        1799
 PW_GRID|   Real Space Points                   432000.0      460800      403200

 PW_GRID| Information for grid number                                          3
 PW_GRID| Number of the reference grid                                         1
 PW_GRID| Grid distributed over                                    32 processors
 PW_GRID| Real space group dimensions                                    32    1
 PW_GRID| the grid is blocked:                                                NO
 PW_GRID| Cutoff [a.u.]                                                     27.8
 PW_GRID| spherical cutoff:                                                   NO
 PW_GRID|   Bounds   1            -67      67                Points:         135
 PW_GRID|   Bounds   2            -67      67                Points:         135
 PW_GRID|   Bounds   3            -67      67                Points:         135
 PW_GRID| Volume element (a.u.^3)  0.7406E-01     Volume (a.u.^3)    182205.0337
 PW_GRID| Grid span                                                    FULLSPACE
 PW_GRID|   Distribution                         Average         Max         Min
 PW_GRID|   G-Vectors                            76886.7       77085       76680
 PW_GRID|   G-Rays                                 569.5         571         568
 PW_GRID|   Real Space Points                    76886.7       91125       72900

 PW_GRID| Information for grid number                                          4
 PW_GRID| Number of the reference grid                                         1
 PW_GRID| Grid distributed over                                    32 processors
 PW_GRID| Real space group dimensions                                    32    1
 PW_GRID| the grid is blocked:                                                NO
 PW_GRID| Cutoff [a.u.]                                                      9.3
 PW_GRID| spherical cutoff:                                                   NO
 PW_GRID|   Bounds   1            -40      39                Points:          80
 PW_GRID|   Bounds   2            -40      39                Points:          80
 PW_GRID|   Bounds   3            -40      39                Points:          80
 PW_GRID| Volume element (a.u.^3)  0.3559         Volume (a.u.^3)    182205.0337
 PW_GRID| Grid span                                                    FULLSPACE
 PW_GRID|   Distribution                         Average         Max         Min
 PW_GRID|   G-Vectors                            16000.0       16160       15920
 PW_GRID|   G-Rays                                 200.0         202         199
 PW_GRID|   Real Space Points                    16000.0       19200       12800

 POISSON| Solver                                                         WAVELET
 POISSON| Wavelet| Scaling function                                           40
 POISSON| Periodicity                                                       NONE

 RS_GRID| Information for grid number                                          1
 RS_GRID|   Bounds   1           -202     202                Points:         405
 RS_GRID|   Bounds   2           -202     202                Points:         405
 RS_GRID|   Bounds   3           -202     202                Points:         405
 RS_GRID| Real space distribution over                                  2 groups
 RS_GRID| Real space distribution along direction                              1
 RS_GRID| Border size                                                         33
 RS_GRID| Real space distribution over                                  4 groups
 RS_GRID| Real space distribution along direction                              2
 RS_GRID| Border size                                                         33
 RS_GRID| Real space distribution over                                  4 groups
 RS_GRID| Real space distribution along direction                              3
 RS_GRID| Border size                                                         33
 RS_GRID|   Distribution                         Average         Max         Min
 RS_GRID|   Planes                                 268.5         269         268
 RS_GRID|   Distribution                         Average         Max         Min
 RS_GRID|   Planes                                 167.2         168         167
 RS_GRID|   Distribution                         Average         Max         Min
 RS_GRID|   Planes                                 167.2         168         167

 RS_GRID| Information for grid number                                          2
 RS_GRID|   Bounds   1           -120     119                Points:         240
 RS_GRID|   Bounds   2           -120     119                Points:         240
 RS_GRID|   Bounds   3           -120     119                Points:         240
 RS_GRID| Real space distribution over                                  2 groups
 RS_GRID| Real space distribution along direction                              1
 RS_GRID| Border size                                                         34
 RS_GRID| Real space distribution over                                  4 groups
 RS_GRID| Real space distribution along direction                              2
 RS_GRID| Border size                                                         34
 RS_GRID| Real space distribution over                                  4 groups
 RS_GRID| Real space distribution along direction                              3
 RS_GRID| Border size                                                         34
 RS_GRID|   Distribution                         Average         Max         Min
 RS_GRID|   Planes                                 188.0         188         188
 RS_GRID|   Distribution                         Average         Max         Min
 RS_GRID|   Planes                                 128.0         128         128
 RS_GRID|   Distribution                         Average         Max         Min
 RS_GRID|   Planes                                 128.0         128         128

[...]
 yz_to_x                            677 12.8    1.822    2.007    7.702    9.289
 grid_collocate_task_list            68  7.0    7.261    7.719    7.261    7.719
 sum_up_and_integrate                68  8.0    0.001    0.001    7.498    7.512
 integrate_v_rspace                  68  9.0    0.001    0.002    7.395    7.421
 potential_pw2rs                     68 10.0    0.016    0.017    7.209    7.240
 transfer_pw2rs                     341 10.6    0.004    0.005    5.453    5.567
 transfer_rs2pw                     341  8.4    0.005    0.006    5.209    5.560
 mp2_main                             1  3.0    0.000    0.000    5.462    5.551
 prepare_gapw_den                    68  8.0    0.001    0.001    5.194    5.284
 put_rho0_on_grid                    68  9.0    0.542    0.569    5.066    5.156
 mp_waitany                        9020 11.5    4.317    4.767    4.317    4.767
 mp2_gpw_main                         1  4.0    0.000    0.000    4.458    4.466
 rpa_ri_compute_en                    1  5.0    0.000    0.000    4.118    4.119
 rpa_num_int                          1  6.0    0.001    0.001    4.067    4.068
 mp_alltoall_d45                     69 10.0    2.539    3.935    2.539    3.935
 transfer_pw2rs_250                 137 10.9    1.452    1.547    3.611    3.780
 transfer_rs2pw_250                 137 10.0    1.370    1.510    3.348    3.733
 pw_gather_p                        677 11.8    3.180    3.617    3.180    3.617
 pw_scatter_p                       742 12.1    3.368    3.489    3.368    3.489
 hfx_ks_matrix                       68  8.0    0.001    0.001    3.329    3.350
 xc_functional_eval                 335 10.5    0.001    0.001    2.802    3.350
 pbe_lda_eval                       335 11.5    2.801    3.349    2.801    3.349
 integrate_four_center               68  9.0    1.436    2.330    3.323    3.344
 mp_alltoall_d11v                  1736  9.7    1.434    2.827    1.434    2.827
 pw_derive                          606 11.3    2.510    2.695    2.510    2.695
 integrate_vhg0_rspace               68  8.0    0.021    0.038    2.221    2.234
 mp_sum_d                          3482  6.6    1.175    1.919    1.175    1.919
 compute_GW_self_energy             100  7.0    0.001    0.001    1.840    1.857
 mp_sync                            773  9.4    0.960    1.802    0.960    1.802
 cp_fm_diag_elpa                     73  7.0    0.000    0.000    1.740    1.748
 cp_fm_diag_elpa_base                73  8.0    1.675    1.720    1.730    1.731
 pw_copy                           1015 10.6    1.620    1.731    1.620    1.731
 parallel_gemm_fm                   354  8.5    0.000    0.000    1.678    1.683
 parallel_gemm_fm_cosma             354  9.5    1.677    1.683    1.677    1.683
 start_bse_calculation                1  7.0    0.000    0.000    1.635    1.635
 compute_GW_self_energy_deep        100  8.0    0.652    0.665    1.534    1.550
 mp_waitall_1                     19374 12.1    0.986    1.375    0.986    1.375
 pw_poisson_set                      69  8.9    0.001    0.002    1.256    1.343
 cp2k_distribution_to_z_slices       68  9.0    0.629    0.729    1.243    1.343
 qs_energies_init_hamiltonians        1  3.0    0.000    0.000    1.303    1.303
 build_core_hamiltonian_matrix        1  4.0    0.000    0.000    1.231    1.231
 overlap_condnum                      1  5.0    0.000    0.000    1.230    1.231
 pw_copy_to_array                   677 11.8    1.074    1.161    1.074    1.161
 transfer_rs2pw_90                   68  9.0    0.217    0.241    0.821    1.134
 pw_axpy                            675  9.3    1.004    1.105    1.004    1.105
 cp_fm_power                          2  7.5    0.029    0.030    1.093    1.101
 fft_wrap_pw1pw2_90                 136 10.5    0.047    0.052    0.899    1.060
 pw_copy_from_array                 742 12.1    0.925    1.004    0.925    1.004
 transfer_pw2rs_30                   68 12.0    0.461    0.510    0.853    0.986
 rs_grid_zero                       342 11.2    0.909    0.972    0.909    0.972
 transfer_pw2rs_90                   68 12.0    0.215    0.247    0.819    0.933
 transfer_rs2pw_30                   68  9.0    0.217    0.255    0.817    0.892
 init_scf_run                         1  3.0    0.000    0.000    0.872    0.872
 scf_env_initial_rho_setup            1  4.0    0.000    0.000    0.866    0.866
 compute_vec_Sigma_x_minus_vxc_       1  4.0    0.000    0.000    0.859    0.859
 mp_sendrecv_dv                    4216 10.0    0.768    0.856    0.768    0.856
 pw_integral_ab_c1d_c1d_gs           68  9.0    0.733    0.749    0.821    0.854
 qs_scf_new_mos                      67  5.0    0.001    0.001    0.691    0.840
 create_hermitian_form_of_ABBA        1  8.0    0.000    0.000    0.813    0.820
 diagonalize_C                        1  8.0    0.000    0.000    0.631    0.631
 copy_dbcsr_to_fm                   174  7.2    0.002    0.002    0.532    0.618
 rpa_num_int_RPA_matrix_operati     100  7.0    0.001    0.002    0.569    0.569
 pw_poisson_rebuild                  68  9.0    0.000    0.000    0.527    0.553
 ps_wavelet_create                    1 10.0    0.000    0.000    0.527    0.553
 RS_z_slice_distribution              1 11.0    0.457    0.505    0.527    0.553
 dbcsr_multiply_generic             264  8.0    0.005    0.005    0.397    0.546
 calculate_dm_sparse                 67  6.0    0.000    0.000    0.356    0.504
 cp_dbcsr_plus_fm_fm_t               67  7.0    0.001    0.001    0.355    0.503
 powell_optimize                 333377 11.0    0.482    0.503    0.482    0.503
 pw_zero                            404 10.3    0.465    0.495    0.465    0.495
 create_qs_kind_set                   1  2.0    0.000    0.000    0.480    0.480
 read_qs_kind                         4  3.0    0.079    0.414    0.480    0.480
 dbcsr_complete_redistribute        312  8.6    0.010    0.012    0.455    0.467
 multiply_cannon                    264  9.0    0.010    0.011    0.307    0.465
 calc_mat_Q                         100  8.0    0.000    0.000    0.414    0.418
 contract_S_to_Q                    100  9.0    0.000    0.000    0.411    0.415
 parser_read_line                 30549  4.0    0.004    0.005    0.401    0.414
 parser_read_line_low                42  5.0    0.002    0.026    0.396    0.409
 broadcast_input_information         42  6.0    0.007    0.007    0.394    0.407
 mp_sum_dm                         3132  7.6    0.306    0.398    0.306    0.398
 qs_init_subsys                       1  2.0    0.001    0.001    0.386    0.386
 mp_bcast_i_src                     168  7.0    0.369    0.385    0.369    0.385
 qs_env_setup                         1  3.0    0.000    0.000    0.383    0.384
 qs_env_rebuild_pw_env                2  3.5    0.000    0.000    0.383    0.383
 pw_env_rebuild                       1  5.0    0.000    0.000    0.383    0.383
 calc_screening_functions             1 10.0    0.094    0.096    0.367    0.383
 mp_isend_dv                       8255 11.8    0.214    0.380    0.214    0.380
 pw_grid_setup                        4  6.0    0.000    0.000    0.375    0.375
 pw_grid_setup_internal               4  7.0    0.005    0.006    0.375    0.375
 calculate_vxc_atom                  68  8.0    0.035    0.063    0.368    0.369
 self_consistency_check              67  5.0    0.000    0.000    0.233    0.362
 cp_sm_mix                           67  6.0    0.000    0.000    0.233    0.362
 mp_max_d                            69  6.9    0.232    0.361    0.232    0.361
 mp2_ri_gpw_compute_in                1  5.0    0.000    0.001    0.329    0.329
 multiply_cannon_loop               264 10.0    0.003    0.003    0.180    0.328
 pw_grid_sort                         4  8.0    0.218    0.225    0.306    0.315
 calc_pair_dist_radii                 1 10.0    0.090    0.091    0.299    0.305
 cp_fm_cholesky_invert              101  8.0    0.280    0.292    0.280    0.292
 multiply_cannon_metrocomm3         768 11.1    0.001    0.001    0.103    0.290
 mp_max_i                           664  2.7    0.158    0.290    0.158    0.290
 eigensolver_symm                    68  6.0    0.005    0.005    0.287    0.289
 integrate_four_center_main          68 10.0    0.012    0.019    0.273    0.284
 integrate_four_center_bin         6250 11.0    0.261    0.273    0.261    0.273
 mp2_ri_gpw_compute_in_loop           1  6.0    0.000    0.000    0.268    0.269
 fft_wrap_pw1pw2_30                 136 10.5    0.010    0.011    0.203    0.263
 gaVxcgb_GC                         134  9.0    0.040    0.261    0.040    0.261
 mp_alltoall_i11v                  1112  9.5    0.135    0.255    0.135    0.255
 mp_sum_dv                         6146  9.8    0.177    0.243    0.177    0.243
 transfer_rs2pw_10                   68  9.0    0.050    0.057    0.219    0.241
 Vh_1c_gg_integrals                  68  8.0    0.006    0.020    0.110    0.214
 mp2_main_alloc_hfx                   1  4.0    0.122    0.211    0.122    0.211
 pw_scale                           269  9.5    0.191    0.207    0.191    0.207
 multiply_cannon_metrocomm4         504 11.1    0.001    0.001    0.020    0.200
 dbcsr_desymmetrize_deep            176  8.2    0.003    0.003    0.192    0.194
 mp_alltoall_i22                    488  9.4    0.137    0.192    0.137    0.192
 grid_integrate_task_list            68 10.0    0.067    0.187    0.067    0.187
 arnoldi_conjugate_gradient           5  6.0    0.004    0.005    0.186    0.186
 write_mo_set_to_restart             67  5.0    0.006    0.181    0.181    0.185
 transfer_pw2rs_10                   68 12.0    0.068    0.073    0.166    0.183
 write_mo_set_low                     4  6.0    0.000    0.000    0.175    0.180
 cp_fm_write_unformatted              4  7.0    0.175    0.180    0.175    0.180
 scale_and_distribute               136 10.0    0.158    0.179    0.158    0.179
 mp_sum_i                            19  9.5    0.089    0.170    0.089    0.170
 restraint_control                    1  2.0    0.000    0.000    0.089    0.170
 cp_fm_cholesky_decompose           102  9.0    0.154    0.168    0.154    0.168
 rs_gather_matrices                  68 10.0    0.001    0.002    0.117    0.168
 multiply_cannon_metrocomm1         768 11.1    0.000    0.000    0.038    0.164
 contract_B_L                         4  7.0    0.001    0.002    0.151    0.160
 compute_Erpa_by_freq_int           100  8.0    0.001    0.001    0.146    0.146
 hybrid_alltoall_any                704 11.3    0.005    0.006    0.052    0.140
 cp_fm_uplo_to_full                 177  8.4    0.061    0.134    0.061    0.134
 dbt_total                            8  8.0    0.000    0.000    0.125    0.125
 mp_allgather_i34                   264 10.0    0.110    0.123    0.110    0.123
 make_m2s                           528  9.0    0.002    0.003    0.064    0.116
 calculate_rho_atom                 272  9.0    0.075    0.115    0.075    0.115
 dbt_contract                         4  9.0    0.000    0.000    0.112    0.115
 dbcsr_sym_matrix_vector_mult      1379  7.0    0.010    0.011    0.107    0.111
 cp_fm_norm                           2  6.0    0.011    0.110    0.011    0.110
 fm_general_add_bse                   5 10.2    0.000    0.000    0.095    0.101
 make_images                        528 10.0    0.007    0.008    0.046    0.098
 sort_shells                          4  9.0    0.087    0.090    0.087    0.090
 create_B                             1  8.0    0.000    0.000    0.084    0.090
 mp_bcast_b_src                     141  7.5    0.029    0.085    0.029    0.085
 create_A                             1  8.0    0.001    0.001    0.080    0.083
 xc_pw_smooth                        67 10.0    0.000    0.000    0.068    0.080
 dbcsr_add_d                       2122  7.1    0.001    0.001    0.019    0.074
 make_images_data                   528 11.0    0.003    0.003    0.022    0.074
 dbcsr_add_anytype                 2122  8.1    0.002    0.008    0.018    0.073
 dbt_tas_multiply                     8 11.5    0.000    0.000    0.072    0.072
 dbt_tas_total                        8 12.5    0.000    0.000    0.072    0.072
 qs_env_update_s_mstruct              1  4.0    0.000    0.000    0.017    0.071
 qs_create_task_list                  1  5.0    0.000    0.000    0.017    0.071
 generate_qs_task_list                1  6.0    0.000    0.000    0.017    0.071
 distribute_tasks                     1  7.0    0.000    0.000    0.017    0.071
 fft_wrap_pw1pw2_10                 136 10.5    0.002    0.003    0.051    0.071
 calculate_ecore_overlap              1  4.0    0.000    0.000    0.054    0.070
 create_local_tasks                   1  8.0    0.000    0.000    0.016    0.070
 mp_alltoall_l11v                     1  9.0    0.016    0.070    0.016    0.070
 scf_post_calculation_gpw             1  3.0    0.000    0.000    0.068    0.068
 write_available_results              1  4.0    0.000    0.000    0.068    0.068
 write_mo_free_results                1  5.0    0.009    0.010    0.068    0.068
 mixing_init                          1  5.0    0.063    0.068    0.067    0.068
 cp_fm_to_fm_submat_general         112 10.1    0.058    0.062    0.058    0.062
 get_2c_integrals                     1  6.0    0.000    0.000    0.052    0.060
 calculate_rho_atom_coeff            68  6.0    0.013    0.014    0.059    0.059
 mp_isend_dm3                      2460 11.5    0.041    0.059    0.041    0.059
 dbcsr_finalize                    3508 10.1    0.005    0.014    0.028    0.056
 mp_isendrecv_dv                   8432 12.0    0.020    0.053    0.020    0.053
 mp_cart_create                     592 10.0    0.039    0.052    0.040    0.052
 create_integ_mat                     4  6.0    0.000    0.001    0.051    0.051
 mp2_eri_3c_integrate                 1  7.0    0.002    0.003    0.039    0.048
 array2fm                             4  7.0    0.000    0.000    0.046    0.048
 integrate_set_3c                  4776  8.0    0.030    0.037    0.037    0.046
 dbcsr_col_vec_to_rep_row          1379  8.0    0.005    0.005    0.038    0.043
 mp_sum_l                          1400  7.0    0.036    0.042    0.036    0.042
 dbt_copy                            12 10.0    0.000    0.000    0.037    0.042
 dbt_tas_dbm                          8 13.5    0.000    0.000    0.040    0.040
 update_ks_atom                      68  8.0    0.009    0.020    0.029    0.039
 vxc_of_r_new                       268  9.0    0.001    0.006    0.010    0.039
 cp_fm_syrk                           3  7.0    0.035    0.038    0.035    0.038
 dbt_tas_mm_1N                        8 14.5    0.000    0.000    0.034    0.036
 dbm_multiply                         8 15.5    0.034    0.036    0.034    0.036
 dbt_reshape                          8 11.5    0.003    0.003    0.030    0.035
 dbt_pgrid_create_expert             84 10.8    0.000    0.000    0.023    0.033
 pw_grid_assign                       4  8.0    0.031    0.033    0.033    0.033
 fm_general_add_bse_1_setup           5 11.2    0.030    0.033    0.030    0.033
 compute_2c_integrals                 1  7.0    0.000    0.000    0.029    0.033
 integrate_four_center_load          68 10.0    0.000    0.000    0.026    0.032
 hfx_load_balance                     1 11.0    0.000    0.000    0.026    0.031
 dbt_communicate_buffer               8 12.5    0.000    0.000    0.025    0.031
 hirshfeld_integration                1  6.0    0.001    0.005    0.030    0.030
 mp_bcast_dm                       2040  9.0    0.020    0.030    0.020    0.030
 dbcsr_iterator_start             19549  9.0    0.016    0.023    0.020    0.029
 mp_bcast_dv                       1379  9.0    0.023    0.028    0.023    0.028
 pw_grid_remap                        4  8.0    0.005    0.006    0.020    0.028
 mp_waitall_2                        50 15.8    0.018    0.027    0.018    0.027
 calculate_hirshfeld_normalizat       1  6.0    0.001    0.005    0.026    0.027
 hfx_load_balance_range               1 12.0    0.000    0.000    0.021    0.027
 postprocess_bse                      1  9.0    0.000    0.000    0.026    0.027
 dbcsr_merge_all                   2899 10.8    0.010    0.019    0.015    0.026
 dbt_remap                            8 10.0    0.001    0.001    0.026    0.026
 cholesky_decomp                      1  7.0    0.000    0.000    0.010    0.025
 array2fm_info                        4  8.0    0.021    0.022    0.022    0.023
 mp_sum_im3                           4  9.0    0.015    0.022    0.015    0.022
 mp2_main_free_hfx                    1  4.0    0.013    0.022    0.013    0.022
 mult_B_with_W                        1  8.0    0.000    0.000    0.021    0.021
 copy_fm_to_dbcsr                   138  8.1    0.000    0.000    0.020    0.021
 mp_comm_split_direct                48 14.5    0.013    0.021    0.013    0.021
 dbcsr_rep_row_to_rep_col_vec      1379  8.0    0.004    0.004    0.017    0.021
 mp_rank_compare                   1419 12.9    0.018    0.021    0.018    0.021
 offload_free_buffer                 76  8.4    0.012    0.021    0.012    0.021
 fm_general_add_bse_5_comm_buff       5 11.2    0.000    0.000    0.015    0.021
 communicate_buffer                   5 12.2    0.000    0.000    0.015    0.020
 integrate_four_center_dist_KS       68 10.0    0.003    0.004    0.020    0.020
 fm_general_add_bse_4_buf_from_       1 10.0    0.018    0.020    0.018    0.020
 mp_bcast_am_src                     42  7.0    0.016    0.019    0.017    0.020
 dbcsr_copy                        6364  7.7    0.011    0.011    0.019    0.019
 fm_general_add_bse_4_buf_from_       1 10.0    0.018    0.019    0.018    0.019
 invert_mat                           1  7.0    0.000    0.000    0.011    0.018
 dbcsr_work_create                 3675 10.2    0.005    0.012    0.008    0.018
 cp_fm_triangular_invert              1  8.0    0.010    0.018    0.010    0.018
 cp_fm_symm                          68  7.0    0.017    0.018    0.017    0.018
 cp_fm_redistribute_start            73  8.0    0.000    0.000    0.009    0.017
 ao_to_mo_and_store_B_mult_gw_1      24  7.0    0.000    0.000    0.016    0.017
 dbcsr_create_new                  9119  9.1    0.012    0.012    0.016    0.016
 array2fm_buffer_send                 4  8.0    0.015    0.015    0.015    0.015
 ao_to_mo_and_store_B_mult_bse_      24  7.0    0.000    0.000    0.015    0.015
 ao_to_mo_and_store_B_mult_1         24  7.0    0.000    0.000    0.014    0.015
 dbcsr_iterator_stop              19549  9.0    0.009    0.012    0.011    0.015
 dbcsr_work_destroy_all            3675 11.2    0.004    0.010    0.006    0.015
 ao_to_mo_and_store_B_mult_bse_      24  7.0    0.000    0.000    0.013    0.014
 get_oscillator_strengths             1 10.0    0.000    0.000    0.014    0.014
 multiply_cannon_multrec            768 11.1    0.011    0.012    0.012    0.014
 integrate_four_center_getP          68 10.0    0.003    0.003    0.012    0.013
 dbt_nd_mp_comm                       8 11.0    0.000    0.000    0.005    0.013
 dbt_distribution_new_expert         76 10.1    0.001    0.001    0.013    0.013
 -------------------------------------------------------------------------------

 The number of warnings for this run is : 1
 
 -------------------------------------------------------------------------------
  **** **** ******  **  PROGRAM ENDED AT                 2025-06-23 15:34:15.481
 ***** ** ***  *** **   PROGRAM RAN ON                                  n2cn0701
 **    ****   ******    PROGRAM RAN BY                                  metdyn02
 ***** **    ** ** **   PROGRAM PROCESS ID                                453105
  **** **  *******  **  PROGRAM STOPPED IN /scratch/hpc-prf-metdyn/metdyn02_Remi
                                           /10_MOL/05_MOL/aUKBqsEOTmq69kFe5R_nOg
                                           /5k_set_final_qzvp/SAZQOZ/mini-SZV/GW
                                           +BSE/RILIM
