 DBCSR| CPU Multiplication driver                                           BLAS (U)
 DBCSR| Multrec recursion limit                                              512 (U)
 DBCSR| Multiplication stack size                                           1000 (D)
 DBCSR| Maximum elements for images                                    UNLIMITED (U)
 DBCSR| Multiplicative factor virtual images                                   1 (U)
 DBCSR| Use multiplication densification                                       T (D)
 DBCSR| Multiplication size stacks                                             3 (U)
 DBCSR| Use memory pool for CPU allocation                                     F (U)
 DBCSR| Number of 3D layers                                               SINGLE (U)
 DBCSR| Use MPI memory allocation                                              F (U)
 DBCSR| Use RMA algorithm                                                      F (U)
 DBCSR| Use Communication thread                                               T (U)
 DBCSR| Communication thread load                                             75 (D)
 DBCSR| MPI: My process id                                                     0
 DBCSR| MPI: Number of processes                                              96
 DBCSR| OMP: Current number of threads                                         4
 DBCSR| OMP: Max number of threads                                             4
 DBCSR| Split modifier for TAS multiplication algorithm                  1.0E+00 (U)


  **** **** ******  **  PROGRAM STARTED AT               2025-04-28 09:21:58.114
 ***** ** ***  *** **   PROGRAM STARTED ON                          i04r04c06s02
 **    ****   ******    PROGRAM STARTED BY                               di38fab
 ***** **    ** ** **   PROGRAM PROCESS ID                               2546411
  **** **  *******  **  PROGRAM STARTED IN /hppfs/scratch/04/di38fab/07_MOL_non_
                                           aug/05_MOL_non_aug/05_MOL/W4-11+ALK/l
                                           i2_ch2n_2/cc-pVDZ/TDDFT

 CP2K| version string:                 CP2K version 2025.1 (Development Version)
 CP2K| source code revision number:                             unknown revision
 CP2K| cp2kflags: omp libint fftw3 libxc parallel scalapack max_contr=4         
 CP2K| is freely available from                            https://www.cp2k.org/
 CP2K| Program compiled at                         Thu Apr 10 16:20:23 CEST 2025
 CP2K| Program compiled on                                               login01
 CP2K| Program compiled for                                        Supermuc-foss
 CP2K| Data directory path                  /hppfs/work/pn36zo/di38fab/cp2k/data
 CP2K| Input file name                                                    GW.inp

 GLOBAL| Force Environment number                                              1
 GLOBAL| Basis set file name            /hppfs/scratch/04/di38fab/04_TMD/BASIS_A
 GLOBAL| Potential file name            /hppfs/work/pn36zo/di38fab/cp2k/data/ALL
 GLOBAL| MM Potential file name                                     MM_POTENTIAL
 GLOBAL| Coordinate file name                                      __STD_INPUT__
 GLOBAL| Method name                                                        CP2K
 GLOBAL| Project name                                                       MoS2
 GLOBAL| Run type                                                         ENERGY
 GLOBAL| FFT library                                                       FFTW3
 GLOBAL| Diagonalization library                                       ScaLAPACK
 GLOBAL| DGEMM library                                                      BLAS
 GLOBAL| Orthonormality check for eigenvectors                          DISABLED
 GLOBAL| Matrix multiplication library                                 ScaLAPACK
 GLOBAL| All-to-all communication in single precision                          F
 GLOBAL| FFTs using library dependent lengths                                  F
 GLOBAL| Grid backend                                                       AUTO
 GLOBAL| Global print level                                               MEDIUM
 GLOBAL| MPI I/O enabled                                                       T
 GLOBAL| Total number of message passing processes                            96
 GLOBAL| Number of threads for this process                                    4
 GLOBAL| This output is from process                                           0
 GLOBAL| OpenMP stack size per thread (OMP_STACKSIZE)                    default
 GLOBAL| CPU model name             Intel(R) Xeon(R) Platinum 8174 CPU @ 3.10GHz

 MEMORY| system memory details [Kb]
 MEMORY|                        rank 0           min           max       average
 MEMORY| MemTotal             98436664      98436660      98436868      98436697
 MEMORY| MemFree              83689440      83689440      84415832      83871038
 MEMORY| Buffers                     0             0             0             0
 MEMORY| Cached                2419000       2394548       2426136       2411207
 MEMORY| Slab                  1258412       1178208       1258412       1237782
 MEMORY| SReclaimable           279504        264832        283912        273788
 MEMORY| MemLikelyFree        86387944      86387944      87084896      86556033


 *** Fundamental physical constants (SI units) ***

 *** Literature: B. J. Mohr and B. N. Taylor,
 ***             CODATA recommended values of the fundamental physical
 ***             constants: 2006, Web Version 5.1
 ***             http://physics.nist.gov/constants

 Speed of light in vacuum [m/s]                             2.99792458000000E+08
 Magnetic constant or permeability of vacuum [N/A**2]       1.25663706143592E-06
 Electric constant or permittivity of vacuum [F/m]          8.85418781762039E-12
 Planck constant (h) [J*s]                                  6.62606896000000E-34
 Planck constant (h-bar) [J*s]                              1.05457162825177E-34
 Elementary charge [C]                                      1.60217648700000E-19
 Electron mass [kg]                                         9.10938215000000E-31
 Electron g factor [ ]                                     -2.00231930436220E+00
 Proton mass [kg]                                           1.67262163700000E-27
 Fine-structure constant                                    7.29735253760000E-03
 Rydberg constant [1/m]                                     1.09737315685270E+07
 Avogadro constant [1/mol]                                  6.02214179000000E+23
 Boltzmann constant [J/K]                                   1.38065040000000E-23
 Atomic mass unit [kg]                                      1.66053878200000E-27
 Bohr radius [m]                                            5.29177208590000E-11

 *** Conversion factors ***

 [u] -> [a.u.]                                              1.82288848426455E+03
 [Angstrom] -> [Bohr] = [a.u.]                              1.88972613288564E+00
 [a.u.] = [Bohr] -> [Angstrom]                              5.29177208590000E-01
 [a.u.] -> [s]                                              2.41888432650478E-17
 [a.u.] -> [fs]                                             2.41888432650478E-02
 [a.u.] -> [J]                                              4.35974393937059E-18
 [a.u.] -> [N]                                              8.23872205491840E-08
 [a.u.] -> [K]                                              3.15774647902944E+05
 [a.u.] -> [kJ/mol]                                         2.62549961709828E+03
 [a.u.] -> [kcal/mol]                                       6.27509468713739E+02
 [a.u.] -> [Pa]                                             2.94210107994716E+13
 [a.u.] -> [bar]                                            2.94210107994716E+08
 [a.u.] -> [atm]                                            2.90362800883016E+08
 [a.u.] -> [eV]                                             2.72113838565563E+01
 [a.u.] -> [Hz]                                             6.57968392072181E+15
 [a.u.] -> [1/cm] (wave numbers)                            2.19474631370540E+05
 [a.u./Bohr**2] -> [1/cm]                                   5.14048714338585E+03
 

 CELL_TOP| Volume [angstrom^3]:                                     27000.000000
 CELL_TOP| Vector a [angstrom    30.000     0.000     0.000   |a| =    30.000000
 CELL_TOP| Vector b [angstrom     0.000    30.000     0.000   |b| =    30.000000
 CELL_TOP| Vector c [angstrom     0.000     0.000    30.000   |c| =    30.000000
 CELL_TOP| Angle (b,c), alpha [degree]:                                90.000000
 CELL_TOP| Angle (a,c), beta  [degree]:                                90.000000
 CELL_TOP| Angle (a,b), gamma [degree]:                                90.000000
 CELL_TOP| Numerically orthorhombic:                                         YES
 CELL_TOP| Periodicity                                                      NONE

 GENERATE|  Preliminary Number of Bonds generated:                             0
 GENERATE|  Achieved consistency in connectivity generation.

 CELL| Volume [angstrom^3]:                                         27000.000000
 CELL| Vector a [angstrom]:      30.000     0.000     0.000   |a| =    30.000000
 CELL| Vector b [angstrom]:       0.000    30.000     0.000   |b| =    30.000000
 CELL| Vector c [angstrom]:       0.000     0.000    30.000   |c| =    30.000000
 CELL| Angle (b,c), alpha [degree]:                                    90.000000
 CELL| Angle (a,c), beta  [degree]:                                    90.000000
 CELL| Angle (a,b), gamma [degree]:                                    90.000000
 CELL| Numerically orthorhombic:                                             YES
 CELL| Periodicity                                                          NONE

 CELL_REF| Volume [angstrom^3]:                                     27000.000000
 CELL_REF| Vector a [angstrom    30.000     0.000     0.000   |a| =    30.000000
 CELL_REF| Vector b [angstrom     0.000    30.000     0.000   |b| =    30.000000
 CELL_REF| Vector c [angstrom     0.000     0.000    30.000   |c| =    30.000000
 CELL_REF| Angle (b,c), alpha [degree]:                                90.000000
 CELL_REF| Angle (a,c), beta  [degree]:                                90.000000
 CELL_REF| Angle (a,b), gamma [degree]:                                90.000000
 CELL_REF| Numerically orthorhombic:                                         YES
 CELL_REF| Periodicity                                                      NONE

 *******************************************************************************
 *******************************************************************************
 **                                                                           **
 **     #####                         ##              ##                      **
 **    ##   ##            ##          ##              ##                      **
 **   ##     ##                       ##            ######                    **
 **   ##     ##  ##   ##  ##   #####  ##  ##   ####   ##    #####    #####    **
 **   ##     ##  ##   ##  ##  ##      ## ##   ##      ##   ##   ##  ##   ##   **
 **   ##  ## ##  ##   ##  ##  ##      ####     ###    ##   ######   ######    **
 **    ##  ###   ##   ##  ##  ##      ## ##      ##   ##   ##       ##        **
 **     #######   #####   ##   #####  ##  ##  ####    ##    #####   ##        **
 **           ##                                                    ##        **
 **                                                                           **
 **                                                ... make the atoms dance   **
 **                                                                           **
 **            Copyright (C) by CP2K developers group (2000-2025)             **
 **                      J. Chem. Phys. 152, 194103 (2020)                    **
 **                                                                           **
 *******************************************************************************

 DFT| Spin restricted Kohn-Sham (RKS) calculation                            RKS
 DFT| Multiplicity                                                             1
 DFT| Number of spin states                                                    1
 DFT| Charge                                                                   0
 DFT| Self-interaction correction (SIC)                                       NO
 DFT| Cutoffs: density                                              1.000000E-10
 DFT|          gradient                                             1.000000E-10
 DFT|          tau                                                  1.000000E-10
 DFT|          cutoff_smoothing_range                               0.000000E+00
 DFT| XC density smoothing                                                  NONE
 DFT| XC derivatives                                                          PW

 FUNCTIONAL| PBE:
 FUNCTIONAL| J.P.Perdew, K.Burke, M.Ernzerhof, Phys. Rev. Letter, vol. 77, n 18,
 FUNCTIONAL|  pp. 3865-3868, (1996)sx=0.750sc=1.000{spin unpolarized}           


 QS| Method:                                                                GAPW
 QS| Density plane wave grid type                        NON-SPHERICAL FULLSPACE
 QS| Number of grid levels:                                                    4
 QS| Density cutoff [a.u.]:                                                250.0
 QS| Multi grid cutoff [a.u.]: 1) grid level                               250.0
 QS|                           2) grid level                                83.3
 QS|                           3) grid level                                27.8
 QS|                           4) grid level                                 9.3
 QS| Grid level progression factor:                                          3.0
 QS| Relative density cutoff [a.u.]:                                        50.0
 QS| Interaction thresholds: eps_pgf_orb:                                1.0E-12
 QS|                         eps_filter_matrix:                          0.0E+00
 QS|                         eps_core_charge:                            1.0E-14
 QS|                         eps_rho_gspace:                             1.0E-12
 QS|                         eps_rho_rspace:                             1.0E-12
 QS|                         eps_gvg_rspace:                             1.0E-06
 QS|                         eps_ppl:                                    1.0E-02
 QS|                         eps_ppnl:                                   1.0E-08
 QS| GAPW|      One center basis from orbital basis primitives
 QS| GAPW|                   eps_fit:                                    1.0E-04
 QS| GAPW|                   eps_iso:                                    1.0E-12
 QS| GAPW|                   eps_svd:                                    1.0E-08
 QS| GAPW|                   eps_cpc:                                    1.0E-12
 QS| GAPW|   atom-r-grid: quadrature:                                     GC_LOG
 QS| GAPW|      atom-s-grid:  max l :                                          4
 QS| GAPW|      max_l_rho0 :                                                   2


 ATOMIC KIND INFORMATION

  1. Atomic kind: c                                     Number of atoms:       4

     Orbital Basis Set                                                   cc-pVDZ

       Number of orbital shell sets:                                           3
       Number of orbital shells:                                               6
       Number of primitive Cartesian functions:                               14
       Number of Cartesian basis functions:                                   15
       Number of spherical basis functions:                                   14
       Norm type:                                                              2

       Normalised Cartesian orbitals:

                        Set   Shell   Orbital            Exponent    Coefficient

                          1       1    1px               9.439000       0.898722
                                                         2.002000       0.711071
                                                         0.545600       0.339917
                                                         0.151700       0.063270
                          1       1    1py               9.439000       0.898722
                                                         2.002000       0.711071
                                                         0.545600       0.339917
                                                         0.151700       0.063270
                          1       1    1pz               9.439000       0.898722
                                                         2.002000       0.711071
                                                         0.545600       0.339917
                                                         0.151700       0.063270

                          1       2    2px               9.439000       0.000000
                                                         2.002000       0.000000
                                                         0.545600       0.000000
                                                         0.151700       0.134950
                          1       2    2py               9.439000       0.000000
                                                         2.002000       0.000000
                                                         0.545600       0.000000
                                                         0.151700       0.134950
                          1       2    2pz               9.439000       0.000000
                                                         2.002000       0.000000
                                                         0.545600       0.000000
                                                         0.151700       0.134950

                          2       1    1s             6665.000000       0.363803
                                                      1000.000000       0.675392
                                                       228.000000       1.132301
                                                        64.710000       1.654004
                                                        21.060000       1.924978
                                                         7.495000       1.448149
                                                         2.797000       0.439427
                                                         0.521500       0.006650
                                                         0.159600      -0.000574

                          2       2    2s             6665.000000      -0.076756
                                                      1000.000000      -0.146257
                                                       228.000000      -0.239407
                                                        64.710000      -0.379069
                                                        21.060000      -0.448104
                                                         7.495000      -0.484201
                                                         2.797000      -0.196168
                                                         0.521500       0.238162
                                                         0.159600       0.104468

                          2       3    3s             6665.000000       0.000000
                                                      1000.000000       0.000000
                                                       228.000000       0.000000
                                                        64.710000       0.000000
                                                        21.060000       0.000000
                                                         7.495000       0.000000
                                                         2.797000       0.000000
                                                         0.521500       0.000000
                                                         0.159600       0.179964

                          3       1    1dx2              0.550000       0.578155
                          3       1    1dxy              0.550000       1.001394
                          3       1    1dxz              0.550000       1.001394
                          3       1    1dy2              0.550000       0.578155
                          3       1    1dyz              0.550000       1.001394
                          3       1    1dz2              0.550000       0.578155

     RI Auxiliary Basis Set                                        cc-pVDZ-RIFIT

       Number of orbital shell sets:                                          18
       Number of orbital shells:                                              18
       Number of primitive Cartesian functions:                               18
       Number of Cartesian basis functions:                                   66
       Number of spherical basis functions:                                   56
       Norm type:                                                              2

       Normalised Cartesian orbitals:

                        Set   Shell   Orbital            Exponent    Coefficient

                          1       1    1s                0.206796       0.218558

                          2       1    1px               0.321667       0.345301
                          2       1    1py               0.321667       0.345301
                          2       1    1pz               0.321667       0.345301

                          3       1    1dx2              0.340842       0.250252
                          3       1    1dxy              0.340842       0.433449
                          3       1    1dxz              0.340842       0.433449
                          3       1    1dy2              0.340842       0.250252
                          3       1    1dyz              0.340842       0.433449
                          3       1    1dz2              0.340842       0.250252

                          4       1    1s                0.409072       0.364552

                          5       1    1px               0.754465       1.002280
                          5       1    1py               0.754465       1.002280
                          5       1    1pz               0.754465       1.002280

                          6       1    1s                0.782697       0.593069

                          7       1    1fx3              0.895756       1.149162
                          7       1    1fx2y             0.895756       2.569605
                          7       1    1fx2z             0.895756       2.569605
                          7       1    1fxy2             0.895756       2.569605
                          7       1    1fxyz             0.895756       4.450686
                          7       1    1fxz2             0.895756       2.569605
                          7       1    1fy3              0.895756       1.149162
                          7       1    1fy2z             0.895756       2.569605
                          7       1    1fyz2             0.895756       2.569605
                          7       1    1fz3              0.895756       1.149162

                          8       1    1dx2              0.922515       1.429266
                          8       1    1dxy              0.922515       2.475561
                          8       1    1dxz              0.922515       2.475561
                          8       1    1dy2              0.922515       1.429266
                          8       1    1dyz              0.922515       2.475561
                          8       1    1dz2              0.922515       1.429266

                          9       1    1s                1.513330       0.972434

                         10       1    1px               1.720600       2.808924
                         10       1    1py               1.720600       2.808924
                         10       1    1pz               1.720600       2.808924

                         11       1    1dx2              2.678440       9.230024
                         11       1    1dxy              2.678440      15.986870
                         11       1    1dxz              2.678440      15.986870
                         11       1    1dy2              2.678440       9.230024
                         11       1    1dyz              2.678440      15.986870
                         11       1    1dz2              2.678440       9.230024

                         12       1    1fx3              2.742930      14.254027
                         12       1    1fx2y             2.742930      31.872974
                         12       1    1fx2z             2.742930      31.872974
                         12       1    1fxy2             2.742930      31.872974
                         12       1    1fxyz             2.742930      55.205610
                         12       1    1fxz2             2.742930      31.872974
                         12       1    1fy3              2.742930      14.254027
                         12       1    1fy2z             2.742930      31.872974
                         12       1    1fyz2             2.742930      31.872974
                         12       1    1fz3              2.742930      14.254027

                         13       1    1s                4.772770       2.301378

                         14       1    1px               6.005230      13.399918
                         14       1    1py               6.005230      13.399918
                         14       1    1pz               6.005230      13.399918

                         15       1    1dx2             10.171500      95.352748
                         15       1    1dxy             10.171500     165.155804
                         15       1    1dxz             10.171500     165.155804
                         15       1    1dy2             10.171500      95.352748
                         15       1    1dyz             10.171500     165.155804
                         15       1    1dz2             10.171500      95.352748

                         16       1    1s               13.804500       5.104176

                         17       1    1px              20.885100      63.640823
                         17       1    1py              20.885100      63.640823
                         17       1    1pz              20.885100      63.640823

                         18       1    1s               62.745300      15.888979

       Atomic covalent radius [Angstrom]:                                  0.770

       Atomic van der Waals radius [Angstrom]:                             1.700

     The atoms of this atomic kind are PAW atoms (GAPW):
       Hard Gaussian function radius:                                      1.512
       Rho0 radius:                                                        1.512
       Maximum GTO radius used for PAW projector construction:            24.566

     GAPW Soft Basis Set                                            cc-pVDZ_soft

       Number of orbital shell sets:                                           3
       Number of orbital shells:                                               6
       Number of primitive Cartesian functions:                                7
       Number of Cartesian basis functions:                                   15
       Number of spherical basis functions:                                   14
       Norm type:                                                              2

       Normalised Cartesian orbitals:

                        Set   Shell   Orbital            Exponent    Coefficient

                          1       1    1px               2.002000       0.711071
                                                         0.545600       0.339917
                                                         0.151700       0.063270
                          1       1    1py               2.002000       0.711071
                                                         0.545600       0.339917
                                                         0.151700       0.063270
                          1       1    1pz               2.002000       0.711071
                                                         0.545600       0.339917
                                                         0.151700       0.063270

                          1       2    2px               2.002000       0.000000
                                                         0.545600       0.000000
                                                         0.151700       0.134950
                          1       2    2py               2.002000       0.000000
                                                         0.545600       0.000000
                                                         0.151700       0.134950
                          1       2    2pz               2.002000       0.000000
                                                         0.545600       0.000000
                                                         0.151700       0.134950

                          2       1    1s                2.797000       0.439427
                                                         0.521500       0.006650
                                                         0.159600      -0.000574

                          2       2    2s                2.797000      -0.196168
                                                         0.521500       0.238162
                                                         0.159600       0.104468

                          2       3    3s                2.797000       0.000000
                                                         0.521500       0.000000
                                                         0.159600       0.179964

                          3       1    1dx2              0.550000       0.578155
                          3       1    1dxy              0.550000       1.001394
                          3       1    1dxz              0.550000       1.001394
                          3       1    1dy2              0.550000       0.578155
                          3       1    1dyz              0.550000       1.001394
                          3       1    1dz2              0.550000       0.578155

     AE Potential information for                                            ALL

       Description:                                       All-electron potential
                                          Krack, Parrinello, PCCP 2, 2105 (2000)

       Gaussian exponent of the core charge distribution:               4.109048
       Electronic configuration (s p d ...):                           4   2   0

  2. Atomic kind: h                                     Number of atoms:       4

     Orbital Basis Set                                                   cc-pVDZ

       Number of orbital shell sets:                                           2
       Number of orbital shells:                                               3
       Number of primitive Cartesian functions:                                5
       Number of Cartesian basis functions:                                    5
       Number of spherical basis functions:                                    5
       Norm type:                                                              2

       Normalised Cartesian orbitals:

                        Set   Shell   Orbital            Exponent    Coefficient

                          1       1    1s               13.010000       0.096107
                                                         1.962000       0.163020
                                                         0.444600       0.185545
                                                         0.122000       0.073744

                          1       2    2s               13.010000       0.000000
                                                         1.962000       0.000000
                                                         0.444600       0.000000
                                                         0.122000       0.147123

                          2       1    1px               0.727000       0.956881
                          2       1    1py               0.727000       0.956881
                          2       1    1pz               0.727000       0.956881

     RI Auxiliary Basis Set                                        cc-pVDZ-RIFIT

       Number of orbital shell sets:                                           6
       Number of orbital shells:                                               6
       Number of primitive Cartesian functions:                                6
       Number of Cartesian basis functions:                                   15
       Number of spherical basis functions:                                   14
       Norm type:                                                              2

       Normalised Cartesian orbitals:

                        Set   Shell   Orbital            Exponent    Coefficient

                          1       1    1s                0.291662       0.282859

                          2       1    1px               0.986401       1.401222
                          2       1    1py               0.986401       1.401222
                          2       1    1pz               0.986401       1.401222

                          3       1    1s                1.142965       0.787834

                          4       1    1dx2              1.172083       2.173136
                          4       1    1dxy              1.172083       3.763982
                          4       1    1dxz              1.172083       3.763982
                          4       1    1dy2              1.172083       2.173136
                          4       1    1dyz              1.172083       3.763982
                          4       1    1dz2              1.172083       2.173136

                          5       1    1px               1.914964       3.211004
                          5       1    1py               1.914964       3.211004
                          5       1    1pz               1.914964       3.211004

                          6       1    1s                5.115890       2.424381

       Atomic covalent radius [Angstrom]:                                  0.320

       Atomic van der Waals radius [Angstrom]:                             1.090

     The atoms of this atomic kind are PAW atoms (GAPW):
       Hard Gaussian function radius:                                      1.200
       Rho0 radius:                                                        1.200
       Maximum GTO radius used for PAW projector construction:            24.566

     GAPW Soft Basis Set                                            cc-pVDZ_soft

       Number of orbital shell sets:                                           2
       Number of orbital shells:                                               3
       Number of primitive Cartesian functions:                                4
       Number of Cartesian basis functions:                                    5
       Number of spherical basis functions:                                    5
       Norm type:                                                              2

       Normalised Cartesian orbitals:

                        Set   Shell   Orbital            Exponent    Coefficient

                          1       1    1s                1.962000       0.163020
                                                         0.444600       0.185545
                                                         0.122000       0.073744

                          1       2    2s                1.962000       0.000000
                                                         0.444600       0.000000
                                                         0.122000       0.147123

                          2       1    1px               0.727000       0.956881
                          2       1    1py               0.727000       0.956881
                          2       1    1pz               0.727000       0.956881

     AE Potential information for                                            ALL

       Description:                                       All-electron potential
                                          Krack, Parrinello, PCCP 2, 2105 (2000)

       Gaussian exponent of the core charge distribution:              12.500000
       Electronic configuration (s p d ...):                           1   0   0

  3. Atomic kind: n                                     Number of atoms:       2

     Orbital Basis Set                                                   cc-pVDZ

       Number of orbital shell sets:                                           3
       Number of orbital shells:                                               6
       Number of primitive Cartesian functions:                               14
       Number of Cartesian basis functions:                                   15
       Number of spherical basis functions:                                   14
       Norm type:                                                              2

       Normalised Cartesian orbitals:

                        Set   Shell   Orbital            Exponent    Coefficient

                          1       1    1px              13.550000       1.479258
                                                         2.917000       1.180072
                                                         0.797300       0.548036
                                                         0.218500       0.098423
                          1       1    1py              13.550000       1.479258
                                                         2.917000       1.180072
                                                         0.797300       0.548036
                                                         0.218500       0.098423
                          1       1    1pz              13.550000       1.479258
                                                         2.917000       1.180072
                                                         0.797300       0.548036
                                                         0.218500       0.098423

                          1       2    2px              13.550000       0.000000
                                                         2.917000       0.000000
                                                         0.797300       0.000000
                                                         0.218500       0.212939
                          1       2    2py              13.550000       0.000000
                                                         2.917000       0.000000
                                                         0.797300       0.000000
                                                         0.218500       0.212939
                          1       2    2pz              13.550000       0.000000
                                                         2.917000       0.000000
                                                         0.797300       0.000000
                                                         0.218500       0.212939

                          2       1    1s             9046.000000       0.462754
                                                      1357.000000       0.858723
                                                       309.300000       1.440591
                                                        87.730000       2.108533
                                                        28.560000       2.454153
                                                        10.210000       1.825915
                                                         3.838000       0.543758
                                                         0.746600       0.008838
                                                         0.224800      -0.000666

                          2       2    2s             9046.000000      -0.101145
                                                      1357.000000      -0.192492
                                                       309.300000      -0.314968
                                                        87.730000      -0.501437
                                                        28.560000      -0.593976
                                                        10.210000      -0.643503
                                                         3.838000      -0.238093
                                                         0.746600       0.314268
                                                         0.224800       0.134678

                          2       3    3s             9046.000000       0.000000
                                                      1357.000000       0.000000
                                                       309.300000       0.000000
                                                        87.730000       0.000000
                                                        28.560000       0.000000
                                                        10.210000       0.000000
                                                         3.838000       0.000000
                                                         0.746600       0.000000
                                                         0.224800       0.232679

                          3       1    1dx2              0.817000       1.155575
                          3       1    1dxy              0.817000       2.001514
                          3       1    1dxz              0.817000       2.001514
                          3       1    1dy2              0.817000       1.155575
                          3       1    1dyz              0.817000       2.001514
                          3       1    1dz2              0.817000       1.155575

     RI Auxiliary Basis Set                                        cc-pVDZ-RIFIT

       Number of orbital shell sets:                                          18
       Number of orbital shells:                                              18
       Number of primitive Cartesian functions:                               18
       Number of Cartesian basis functions:                                   66
       Number of spherical basis functions:                                   56
       Norm type:                                                              2

       Normalised Cartesian orbitals:

                        Set   Shell   Orbital            Exponent    Coefficient

                          1       1    1s                0.327261       0.308376

                          2       1    1px               0.461104       0.541613
                          2       1    1py               0.461104       0.541613
                          2       1    1pz               0.461104       0.541613

                          3       1    1dx2              0.477850       0.452033
                          3       1    1dxy              0.477850       0.782943
                          3       1    1dxz              0.477850       0.782943
                          3       1    1dy2              0.477850       0.452033
                          3       1    1dyz              0.477850       0.782943
                          3       1    1dz2              0.477850       0.452033

                          4       1    1s                0.723539       0.559122

                          5       1    1px               1.094610       1.595932
                          5       1    1py               1.094610       1.595932
                          5       1    1pz               1.094610       1.595932

                          6       1    1s                1.123240       0.777615

                          7       1    1dx2              1.285370       2.553929
                          7       1    1dxy              1.285370       4.423534
                          7       1    1dxz              1.285370       4.423534
                          7       1    1dy2              1.285370       2.553929
                          7       1    1dyz              1.285370       4.423534
                          7       1    1dz2              1.285370       2.553929

                          8       1    1fx3              1.334730       2.818965
                          8       1    1fx2y             1.334730       6.303397
                          8       1    1fx2z             1.334730       6.303397
                          8       1    1fxy2             1.334730       6.303397
                          8       1    1fxyz             1.334730      10.917804
                          8       1    1fxz2             1.334730       6.303397
                          8       1    1fy3              1.334730       2.818965
                          8       1    1fy2z             1.334730       6.303397
                          8       1    1fyz2             1.334730       6.303397
                          8       1    1fz3              1.334730       2.818965

                          9       1    1s                2.344260       1.350251

                         10       1    1px               2.533640       4.556393
                         10       1    1py               2.533640       4.556393
                         10       1    1pz               2.533640       4.556393

                         11       1    1fx3              3.401180      23.127095
                         11       1    1fx2y             3.401180      51.713757
                         11       1    1fx2z             3.401180      51.713757
                         11       1    1fxy2             3.401180      51.713757
                         11       1    1fxyz             3.401180      89.570854
                         11       1    1fxz2             3.401180      51.713757
                         11       1    1fy3              3.401180      23.127095
                         11       1    1fy2z             3.401180      51.713757
                         11       1    1fyz2             3.401180      51.713757
                         11       1    1fz3              3.401180      23.127095

                         12       1    1dx2              3.428160      14.215638
                         12       1    1dxy              3.428160      24.622207
                         12       1    1dxz              3.428160      24.622207
                         12       1    1dy2              3.428160      14.215638
                         12       1    1dyz              3.428160      24.622207
                         12       1    1dz2              3.428160      14.215638

                         13       1    1s                7.624360       3.270112

                         14       1    1px               8.552990      20.849111
                         14       1    1py               8.552990      20.849111
                         14       1    1pz               8.552990      20.849111

                         15       1    1dx2             12.327800     133.493224
                         15       1    1dxy             12.327800     231.217046
                         15       1    1dxz             12.327800     231.217046
                         15       1    1dy2             12.327800     133.493224
                         15       1    1dyz             12.327800     231.217046
                         15       1    1dz2             12.327800     133.493224

                         16       1    1s               20.467900       6.858278

                         17       1    1px              29.237300      96.908455
                         17       1    1py              29.237300      96.908455
                         17       1    1pz              29.237300      96.908455

                         18       1    1s               87.686400      20.422517

       Atomic covalent radius [Angstrom]:                                  0.750

       Atomic van der Waals radius [Angstrom]:                             1.550

     The atoms of this atomic kind are PAW atoms (GAPW):
       Hard Gaussian function radius:                                      1.512
       Rho0 radius:                                                        1.512
       Maximum GTO radius used for PAW projector construction:            24.566

     GAPW Soft Basis Set                                            cc-pVDZ_soft

       Number of orbital shell sets:                                           3
       Number of orbital shells:                                               6
       Number of primitive Cartesian functions:                                7
       Number of Cartesian basis functions:                                   15
       Number of spherical basis functions:                                   14
       Norm type:                                                              2

       Normalised Cartesian orbitals:

                        Set   Shell   Orbital            Exponent    Coefficient

                          1       1    1px               2.917000       1.180072
                                                         0.797300       0.548036
                                                         0.218500       0.098423
                          1       1    1py               2.917000       1.180072
                                                         0.797300       0.548036
                                                         0.218500       0.098423
                          1       1    1pz               2.917000       1.180072
                                                         0.797300       0.548036
                                                         0.218500       0.098423

                          1       2    2px               2.917000       0.000000
                                                         0.797300       0.000000
                                                         0.218500       0.212939
                          1       2    2py               2.917000       0.000000
                                                         0.797300       0.000000
                                                         0.218500       0.212939
                          1       2    2pz               2.917000       0.000000
                                                         0.797300       0.000000
                                                         0.218500       0.212939

                          2       1    1s                3.838000       0.543758
                                                         0.746600       0.008838
                                                         0.224800      -0.000666

                          2       2    2s                3.838000      -0.238093
                                                         0.746600       0.314268
                                                         0.224800       0.134678

                          2       3    3s                3.838000       0.000000
                                                         0.746600       0.000000
                                                         0.224800       0.232679

                          3       1    1dx2              0.817000       1.155575
                          3       1    1dxy              0.817000       2.001514
                          3       1    1dxz              0.817000       2.001514
                          3       1    1dy2              0.817000       1.155575
                          3       1    1dyz              0.817000       2.001514
                          3       1    1dz2              0.817000       1.155575

     AE Potential information for                                            ALL

       Description:                                       All-electron potential
                                          Krack, Parrinello, PCCP 2, 2105 (2000)

       Gaussian exponent of the core charge distribution:               5.979100
       Electronic configuration (s p d ...):                           4   3   0

  4. Atomic kind: li                                    Number of atoms:       2

     Orbital Basis Set                                                   cc-pVDZ

       Number of orbital shell sets:                                           3
       Number of orbital shells:                                               6
       Number of primitive Cartesian functions:                               14
       Number of Cartesian basis functions:                                   15
       Number of spherical basis functions:                                   14
       Norm type:                                                              2

       Normalised Cartesian orbitals:

                        Set   Shell   Orbital            Exponent    Coefficient

                          1       1    1px               1.534000       0.055444
                                                         0.274900       0.039469
                                                         0.073620       0.027351
                                                         0.024030       0.006857
                          1       1    1py               1.534000       0.055444
                                                         0.274900       0.039469
                                                         0.073620       0.027351
                                                         0.024030       0.006857
                          1       1    1pz               1.534000       0.055444
                                                         0.274900       0.039469
                                                         0.073620       0.027351
                                                         0.024030       0.006857

                          1       2    2px               1.534000       0.000000
                                                         0.274900       0.000000
                                                         0.073620       0.000000
                                                         0.024030       0.013486
                          1       2    2py               1.534000       0.000000
                                                         0.274900       0.000000
                                                         0.073620       0.000000
                                                         0.024030       0.013486
                          1       2    2pz               1.534000       0.000000
                                                         0.274900       0.000000
                                                         0.073620       0.000000
                                                         0.024030       0.013486

                          2       1    1s             1469.000000       0.129540
                                                       220.500000       0.240287
                                                        50.260000       0.399171
                                                        14.240000       0.570408
                                                         4.581000       0.631093
                                                         1.580000       0.455113
                                                         0.564000       0.127452
                                                         0.073450       0.000981
                                                         0.028050      -0.000155

                          2       2    2s             1469.000000      -0.020294
                                                       220.500000      -0.037642
                                                        50.260000      -0.063082
                                                        14.240000      -0.092379
                                                         4.581000      -0.109133
                                                         1.580000      -0.096431
                                                         0.564000      -0.063259
                                                         0.073450       0.057829
                                                         0.028050       0.025287

                          2       3    3s             1469.000000       0.000000
                                                       220.500000       0.000000
                                                        50.260000       0.000000
                                                        14.240000       0.000000
                                                         4.581000       0.000000
                                                         1.580000       0.000000
                                                         0.564000       0.000000
                                                         0.073450       0.000000
                                                         0.028050       0.048849

                          3       1    1dx2              0.114400       0.037039
                          3       1    1dxy              0.114400       0.064153
                          3       1    1dxz              0.114400       0.064153
                          3       1    1dy2              0.114400       0.037039
                          3       1    1dyz              0.114400       0.064153
                          3       1    1dz2              0.114400       0.037039

     RI Auxiliary Basis Set                                        cc-pVDZ-RIFIT

       Number of orbital shell sets:                                          18
       Number of orbital shells:                                              18
       Number of primitive Cartesian functions:                               18
       Number of Cartesian basis functions:                                   66
       Number of spherical basis functions:                                   56
       Norm type:                                                              2

       Normalised Cartesian orbitals:

                        Set   Shell   Orbital            Exponent    Coefficient

                          1       1    1px               0.078395       0.059129
                          1       1    1py               0.078395       0.059129
                          1       1    1pz               0.078395       0.059129

                          2       1    1s                0.092345       0.119391

                          3       1    1dx2              0.142015       0.054075
                          3       1    1dxy              0.142015       0.093660
                          3       1    1dxz              0.142015       0.093660
                          3       1    1dy2              0.142015       0.054075
                          3       1    1dyz              0.142015       0.093660
                          3       1    1dz2              0.142015       0.054075

                          4       1    1s                0.160474       0.180702

                          5       1    1px               0.183739       0.171471
                          5       1    1py               0.183739       0.171471
                          5       1    1pz               0.183739       0.171471

                          6       1    1dx2              0.241521       0.136956
                          6       1    1dxy              0.241521       0.237214
                          6       1    1dxz              0.241521       0.237214
                          6       1    1dy2              0.241521       0.136956
                          6       1    1dyz              0.241521       0.237214
                          6       1    1dz2              0.241521       0.136956

                          7       1    1s                0.345354       0.321076

                          8       1    1fx3              0.361631       0.149297
                          8       1    1fx2y             0.361631       0.333839
                          8       1    1fx2z             0.361631       0.333839
                          8       1    1fxy2             0.361631       0.333839
                          8       1    1fxyz             0.361631       0.578226
                          8       1    1fxz2             0.361631       0.333839
                          8       1    1fy3              0.361631       0.149297
                          8       1    1fy2z             0.361631       0.333839
                          8       1    1fyz2             0.361631       0.333839
                          8       1    1fz3              0.361631       0.149297

                          9       1    1dx2              0.575267       0.625433
                          9       1    1dxy              0.575267       1.083282
                          9       1    1dxz              0.575267       1.083282
                          9       1    1dy2              0.575267       0.625433
                          9       1    1dyz              0.575267       1.083282
                          9       1    1dz2              0.575267       0.625433

                         10       1    1px               0.772809       1.032833
                         10       1    1py               0.772809       1.032833
                         10       1    1pz               0.772809       1.032833

                         11       1    1s                0.787336       0.595704

                         12       1    1dx2              1.492840       3.318430
                         12       1    1dxy              1.492840       5.747689
                         12       1    1dxz              1.492840       5.747689
                         12       1    1dy2              1.492840       3.318430
                         12       1    1dyz              1.492840       5.747689
                         12       1    1dz2              1.492840       3.318430

                         13       1    1fx3              1.617750       4.345153
                         13       1    1fx2y             1.617750       9.716058
                         13       1    1fx2z             1.617750       9.716058
                         13       1    1fxy2             1.617750       9.716058
                         13       1    1fxyz             1.617750      16.828707
                         13       1    1fxz2             1.617750       9.716058
                         13       1    1fy3              1.617750       4.345153
                         13       1    1fy2z             1.617750       9.716058
                         13       1    1fyz2             1.617750       9.716058
                         13       1    1fz3              1.617750       4.345153

                         14       1    1px               2.332640       4.109129
                         14       1    1py               2.332640       4.109129
                         14       1    1pz               2.332640       4.109129

                         15       1    1s                2.566800       1.445287

                         16       1    1px               6.715980      15.410858
                         16       1    1py               6.715980      15.410858
                         16       1    1pz               6.715980      15.410858

                         17       1    1s                7.588050       3.258425

                         18       1    1s               30.407500       9.228808

       Atomic covalent radius [Angstrom]:                                  1.230

       Atomic van der Waals radius [Angstrom]:                             1.820

     The atoms of this atomic kind are PAW atoms (GAPW):
       Hard Gaussian function radius:                                      1.512
       Rho0 radius:                                                        1.512
       Maximum GTO radius used for PAW projector construction:            24.566

     GAPW Soft Basis Set                                            cc-pVDZ_soft

       Number of orbital shell sets:                                           3
       Number of orbital shells:                                               6
       Number of primitive Cartesian functions:                                9
       Number of Cartesian basis functions:                                   15
       Number of spherical basis functions:                                   14
       Norm type:                                                              2

       Normalised Cartesian orbitals:

                        Set   Shell   Orbital            Exponent    Coefficient

                          1       1    1px               1.534000       0.055444
                                                         0.274900       0.039469
                                                         0.073620       0.027351
                                                         0.024030       0.006857
                          1       1    1py               1.534000       0.055444
                                                         0.274900       0.039469
                                                         0.073620       0.027351
                                                         0.024030       0.006857
                          1       1    1pz               1.534000       0.055444
                                                         0.274900       0.039469
                                                         0.073620       0.027351
                                                         0.024030       0.006857

                          1       2    2px               1.534000       0.000000
                                                         0.274900       0.000000
                                                         0.073620       0.000000
                                                         0.024030       0.013486
                          1       2    2py               1.534000       0.000000
                                                         0.274900       0.000000
                                                         0.073620       0.000000
                                                         0.024030       0.013486
                          1       2    2pz               1.534000       0.000000
                                                         0.274900       0.000000
                                                         0.073620       0.000000
                                                         0.024030       0.013486

                          2       1    1s                1.580000       0.455113
                                                         0.564000       0.127452
                                                         0.073450       0.000981
                                                         0.028050      -0.000155

                          2       2    2s                1.580000      -0.096431
                                                         0.564000      -0.063259
                                                         0.073450       0.057829
                                                         0.028050       0.025287

                          2       3    3s                1.580000       0.000000
                                                         0.564000       0.000000
                                                         0.073450       0.000000
                                                         0.028050       0.048849

                          3       1    1dx2              0.114400       0.037039
                          3       1    1dxy              0.114400       0.064153
                          3       1    1dxz              0.114400       0.064153
                          3       1    1dy2              0.114400       0.037039
                          3       1    1dyz              0.114400       0.064153
                          3       1    1dz2              0.114400       0.037039

     AE Potential information for                                            ALL

       Description:                                       All-electron potential
                                          Krack, Parrinello, PCCP 2, 2105 (2000)

       Gaussian exponent of the core charge distribution:               3.125000
       Electronic configuration (s p d ...):                           3   0   0


 MOLECULE KIND INFORMATION


 All atoms are their own molecule, skipping detailed information


 TOTAL NUMBERS AND MAXIMUM NUMBERS

  Total number of            - Atomic kinds:                                   4
                             - Atoms:                                         12
                             - Shell sets:                                    32
                             - Shells:                                        60
                             - Primitive Cartesian functions:                132
                             - Cartesian basis functions:                    140
                             - Spherical basis functions:                    132

  Maximum angular momentum of the orbital basis functions:                     2


 MODULE QUICKSTEP: ATOMIC COORDINATES IN ANGSTROM

   Atom Kind Element         X             Y             Z       Z(eff)     Mass
      1    1 c     6     12.732796     13.766354     15.003880   6.0000  12.0107
      2    2 h     1     12.192601     13.477133     15.901278   1.0000   1.0079
      3    1 c     6     13.133566     15.096306     15.007881   6.0000  12.0107
      4    2 h     1     12.204657     13.478959     14.098722   1.0000   1.0079
      5    3 n     7     13.583511     16.175251     15.012104   7.0000  14.0067
      6    4 li    3     14.713864     13.027313     15.012426   3.0000   6.9410
      7    1 c     6     17.267204     16.233646     15.003880   6.0000  12.0107
      8    2 h     1     17.807399     16.522867     15.901278   1.0000   1.0079
      9    1 c     6     16.866434     14.903694     15.007881   6.0000  12.0107
     10    2 h     1     17.795343     16.521041     14.098722   1.0000   1.0079
     11    3 n     7     16.416489     13.824749     15.012104   7.0000  14.0067
     12    4 li    3     15.286136     16.972687     15.012426   3.0000   6.9410



 SCF PARAMETERS         Density guess:                                   RESTART
                        --------------------------------------------------------
                        max_scf:                                             500
                        max_scf_history:                                       0
                        max_diis:                                              4
                        --------------------------------------------------------
                        eps_scf:                                        1.00E-06
                        eps_scf_history:                                0.00E+00
                        eps_diis:                                       1.00E-01
                        eps_eigval:                                     1.00E-05
                        --------------------------------------------------------
                        level_shift [a.u.]:                             0.000000
                        --------------------------------------------------------
                        Outer loop SCF in use 
                        No variables optimised in outer loop
                        eps_scf                                         1.00E-06
                        max_scf                                               20
                        No outer loop optimization
                        step_size                                       5.00E-01

 PW_GRID| Information for grid number                                          1
 PW_GRID| Grid distributed over                                    96 processors
 PW_GRID| Real space group dimensions                                    96    1
 PW_GRID| the grid is blocked:                                                NO
 PW_GRID| Cutoff [a.u.]                                                    250.0
 PW_GRID| spherical cutoff:                                                   NO
 PW_GRID|   Bounds   1           -202     202                Points:         405
 PW_GRID|   Bounds   2           -202     202                Points:         405
 PW_GRID|   Bounds   3           -202     202                Points:         405
 PW_GRID| Volume element (a.u.^3)  0.2743E-02     Volume (a.u.^3)    182205.0337
 PW_GRID| Grid span                                                    FULLSPACE
 PW_GRID|   Distribution                         Average         Max         Min
 PW_GRID|   G-Vectors                           691980.5      692145      691740
 PW_GRID|   G-Rays                                1708.6        1709        1708
 PW_GRID|   Real Space Points                   691980.5      820125      656100

 PW_GRID| Information for grid number                                          2
 PW_GRID| Number of the reference grid                                         1
 PW_GRID| Grid distributed over                                    96 processors
 PW_GRID| Real space group dimensions                                    96    1
 PW_GRID| the grid is blocked:                                                NO
 PW_GRID| Cutoff [a.u.]                                                     83.3
 PW_GRID| spherical cutoff:                                                   NO
 PW_GRID|   Bounds   1           -120     119                Points:         240
 PW_GRID|   Bounds   2           -120     119                Points:         240
 PW_GRID|   Bounds   3           -120     119                Points:         240
 PW_GRID| Volume element (a.u.^3)  0.1318E-01     Volume (a.u.^3)    182205.0337
 PW_GRID| Grid span                                                    FULLSPACE
 PW_GRID|   Distribution                         Average         Max         Min
 PW_GRID|   G-Vectors                           144000.0      144480      143760
 PW_GRID|   G-Rays                                 600.0         602         599
 PW_GRID|   Real Space Points                   144000.0      172800      115200

 PW_GRID| Information for grid number                                          3
 PW_GRID| Number of the reference grid                                         1
 PW_GRID| Grid distributed over                                    96 processors
 PW_GRID| Real space group dimensions                                    96    1
 PW_GRID| the grid is blocked:                                                NO
 PW_GRID| Cutoff [a.u.]                                                     27.8
 PW_GRID| spherical cutoff:                                                   NO
 PW_GRID|   Bounds   1            -67      67                Points:         135
 PW_GRID|   Bounds   2            -67      67                Points:         135
 PW_GRID|   Bounds   3            -67      67                Points:         135
 PW_GRID| Volume element (a.u.^3)  0.7406E-01     Volume (a.u.^3)    182205.0337
 PW_GRID| Grid span                                                    FULLSPACE
 PW_GRID|   Distribution                         Average         Max         Min
 PW_GRID|   G-Vectors                            25628.9       25785       25515
 PW_GRID|   G-Rays                                 189.8         191         189
 PW_GRID|   Real Space Points                    25628.9       36450       18225

 PW_GRID| Information for grid number                                          4
 PW_GRID| Number of the reference grid                                         1
 PW_GRID| Grid distributed over                                    96 processors
 PW_GRID| Real space group dimensions                                     8   12
 PW_GRID| the grid is blocked:                                                NO
 PW_GRID| Cutoff [a.u.]                                                      9.3
 PW_GRID| spherical cutoff:                                                   NO
 PW_GRID|   Bounds   1            -40      39                Points:          80
 PW_GRID|   Bounds   2            -40      39                Points:          80
 PW_GRID|   Bounds   3            -40      39                Points:          80
 PW_GRID| Volume element (a.u.^3)  0.3559         Volume (a.u.^3)    182205.0337
 PW_GRID| Grid span                                                    FULLSPACE
 PW_GRID|   Distribution                         Average         Max         Min
 PW_GRID|   G-Vectors                             5333.3        5520        5200
 PW_GRID|   G-Rays                                  66.7          69          65
 PW_GRID|   Real Space Points                     5333.3        5600        4800

 POISSON| Solver                                                         WAVELET
 POISSON| Wavelet| Scaling function                                           40
 POISSON| Periodicity                                                       NONE

 RS_GRID| Information for grid number                                          1
 RS_GRID|   Bounds   1           -202     202                Points:         405
 RS_GRID|   Bounds   2           -202     202                Points:         405
 RS_GRID|   Bounds   3           -202     202                Points:         405
 RS_GRID| Real space distribution over                                  4 groups
 RS_GRID| Real space distribution along direction                              1
 RS_GRID| Border size                                                         33
 RS_GRID| Real space distribution over                                  4 groups
 RS_GRID| Real space distribution along direction                              2
 RS_GRID| Border size                                                         33
 RS_GRID| Real space distribution over                                  6 groups
 RS_GRID| Real space distribution along direction                              3
 RS_GRID| Border size                                                         33
 RS_GRID|   Distribution                         Average         Max         Min
 RS_GRID|   Planes                                 167.2         168         167
 RS_GRID|   Distribution                         Average         Max         Min
 RS_GRID|   Planes                                 167.2         168         167
 RS_GRID|   Distribution                         Average         Max         Min
 RS_GRID|   Planes                                 133.5         134         133

 RS_GRID| Information for grid number                                          2
 RS_GRID|   Bounds   1           -120     119                Points:         240
 RS_GRID|   Bounds   2           -120     119                Points:         240
 RS_GRID|   Bounds   3           -120     119                Points:         240
 RS_GRID| Real space distribution over                                  4 groups
 RS_GRID| Real space distribution along direction                              1
 RS_GRID| Border size                                                         36
 RS_GRID| Real space distribution over                                  4 groups
 RS_GRID| Real space distribution along direction                              2
[...]
 tddfpt_energies                      1  5.0    0.000    0.001  212.333  212.333
 tddfpt_davidson_solver               1  6.0    0.001    0.002  210.834  210.834
 tddfpt_compute_Aop_evects            7  7.0    0.000    0.000  209.278  209.279
 fhxc_kernel                          7  8.0    0.007    0.008  196.165  196.165
 ps_wavelet_solve                   671  9.4  149.589  170.478  192.977  195.751
 qs_rho_update_rho_low              673  5.8    0.007    0.008  163.230  163.234
 calculate_rho_elec                 673  6.8    3.273    3.883  162.406  162.412
 mp_alltoall_d54                    671 10.4   25.246  147.801   25.246  147.801
 xc_pw_derive                      2970 11.0    0.034    0.042  138.067  142.110
 mp_alltoall_z22v                 10258 14.3  125.830  138.021  125.830  138.021
 qs_vxc_create                      531  8.0    0.006    0.006  136.345  136.347
 density_rs2pw                      673  7.8    0.041    0.049  109.788  115.355
 xc_rho_set_and_dset_create         532 10.0    1.213    1.577   84.002  100.840
 yz_to_x                           4635 13.0    7.478    9.003   72.931   81.698
 tddfpt_apply_coulomb               140  9.0    0.003    0.004   80.839   81.146
 x_to_yz                           4632 13.7   13.875   16.153   74.178   76.936
 xc_exc_calc                        353  9.0    1.714    2.036   68.431   68.433
 xc_vxc_pw_create                   178  9.0    1.102    1.335   67.908   67.909
 transfer_rs2pw                    3365  9.1    0.080    0.132   62.814   67.093
 xc_pw_divergence                   318 10.4    0.014    0.016   63.139   66.764
 prepare_gapw_den                   672  8.2    0.011    0.014   56.792   57.519
 mp_alltoall_d11v                 18746 11.9   40.655   57.364   40.655   57.364
 put_rho0_on_grid                   672  9.2    3.370    4.165   54.009   54.736
 grid_collocate_task_list           673  7.8   46.681   53.022   46.681   53.022
 tddfpt_apply_xc_analytic           140  9.0    0.199    0.262   47.515   48.137
 transfer_pw2rs                    1944 10.5    0.031    0.037   47.064   47.965
 integrate_v_rspace                 318  9.0    0.008    0.010   46.856   47.039
 mp_waitany                       99810 11.6   39.229   44.425   39.229   44.425
 potential_pw2rs                    318 10.0    0.110    0.120   42.347   42.598
 transfer_rs2pw_250                1346 10.5   14.939   16.194   35.421   40.533
 integrate_four_center              811  9.3   16.952   28.514   34.125   34.616
 mp_sum_d                         21817 10.6   23.519   32.740   23.519   32.740
 transfer_pw2rs_250                 990 10.9   11.521   12.687   31.633   32.497
 integrate_vhg0_rspace              671  8.4    0.293    0.430   29.507   29.657
 mp_alltoall_d45                    672 10.4   16.579   28.784   16.579   28.784
 xc_calc_2nd_deriv_analytical       700 10.2    1.675    1.758   28.400   28.522
 mp_sync                           4611 11.3   11.671   26.504   11.671   26.504
 sum_up_and_integrate               178  8.0    0.002    0.003   26.344   26.421
 xc_functional_eval                3216 10.8    0.005    0.016   10.602   26.126
 pbe_lda_eval                      3216 11.8   10.596   26.123   10.596   26.123
 hfx_ks_matrix                      531  8.0    0.019    0.022   23.511   23.941
 pw_scatter_p                      4950 12.7   18.134   18.602   18.134   18.602
 cp2k_distribution_to_z_slices      671  9.4    6.438    7.019   15.808   16.792
 pw_derive                         4983 11.4   14.719   15.973   14.719   15.973
 pw_gather_p                       5308 11.9   14.190   15.710   14.190   15.710
 qs_scf_new_mos                     531  5.0    0.003    0.003   15.264   15.282
 qs_scf_loop_do_ot                  531  6.0    0.003    0.004   15.261   15.280
 transfer_rs2pw_30                  673  9.8    6.373    6.697   14.913   15.090
 ot_scf_mini                        531  7.0    0.007    0.007   14.375   14.398
 tddfpt_apply_hfx                     7  8.0    0.003    0.003   12.517   12.517
 dbcsr_multiply_generic            7436  9.8    0.306    0.324   11.913   11.989
 fft_wrap_pw1pw2_90                 991 10.5    0.344    0.508    8.998   11.391
 pw_copy                           8025 10.6   10.423   11.203   10.423   11.203
 tddft_hfx_matrix                   280  9.0    0.008    0.010   10.667   10.739
 mp_sendrecv_dv                  127870 10.8   10.454   10.718   10.454   10.718
 pw_poisson_set                     672  9.4    0.023    0.027   10.389   10.554
 transfer_rs2pw_90                  673  9.8    2.245    2.576    9.318   10.387
 transfer_pw2rs_30                  318 12.0    5.425    6.220    9.032    9.529
 rs_grid_zero                      2652 11.0    9.060    9.508    9.060    9.508
 mp_waitall_1                    941864 13.4    6.952    9.341    6.952    9.341
 qs_ot_get_p                        533  8.0    0.003    0.003    7.639    7.657
 pw_integral_ab_c1d_c1d_gs          671  9.4    4.907    4.956    6.056    6.966
 init_scf_loop                        2  4.0    0.000    0.000    6.318    6.318
 multiply_cannon                   7436 10.8    0.669    0.690    5.986    6.191
 pw_copy_to_array                  5308 11.9    5.023    5.907    5.023    5.907
 qs_ot_p2m_diag                     500  9.0    0.010    0.037    5.404    5.436
 transfer_pw2rs_90                  318 12.0    1.122    1.347    4.735    5.231
 pw_axpy                           5093  9.5    4.670    5.011    4.670    5.011
 mp_isend_dv                     412546 13.4    2.990    4.801    2.990    4.801
 multiply_cannon_loop              7436 11.8    1.114    1.161    4.386    4.579
 calculate_vxc_atom                 531  8.0    0.390    1.759    4.559    4.562
 rs_gather_matrices                 318 10.0    0.005    0.010    3.995    4.558
 pw_copy_from_array                4950 12.7    3.554    4.469    3.554    4.469
 grid_integrate_task_list           318 10.0    0.504    4.388    0.504    4.388
 mp_sum_dm                        24239  8.4    3.559    4.208    3.559    4.208
 ot_mini                            531  8.0    0.002    0.002    4.176    4.204
 cp_dbcsr_sm_fm_multiply            890  8.5    0.017    0.019    3.904    3.977
 gaVxcgb_GC                         636  9.4    0.172    3.857    0.172    3.857
 qs_ot_get_derivative               178  9.0    0.001    0.001    3.818    3.825
 cp_dbcsr_syevd                     500 10.0    0.028    0.029    3.788    3.796
 pw_zero                           4659 10.4    3.365    3.646    3.365    3.646
 make_m2s                         14872 10.8    0.258    0.291    3.529    3.638
 mp_isend_dm3                     19962 11.6    1.675    3.606    1.675    3.606
 mp_isendrecv_dv                 214510 11.8    1.829    3.418    1.829    3.418
 dbcsr_complete_redistribute       3835 10.9    0.146    0.188    3.170    3.253
 transfer_rs2pw_10                  673  9.8    1.168    1.259    3.082    3.206
 mp_irecv_dm3                     19962 11.6    1.906    3.108    1.906    3.108
 cp_fm_syevd                        549 10.7    0.003    0.004    3.020    3.024
 qs_ot_get_derivative_diag          166 10.0    0.004    0.004    2.843    2.849
 calculate_xc_2nd_deriv_atom        140  9.0    0.064    0.811    0.176    2.813
 make_images                      14872 11.8    0.581    0.596    2.538    2.608
 mp_max_i                          1139  6.8    1.983    2.583    1.983    2.583
 cp_fm_redistribute_end             549 11.7    1.398    2.528    1.411    2.542
 calculate_rho_atom                2688  9.2    1.662    2.539    1.662    2.540
 copy_dbcsr_to_fm                  1449  9.9    0.019    0.020    2.509    2.529
 create_qs_kind_set                   1  2.0    0.000    0.000    2.278    2.278
 read_qs_kind                         4  3.0    1.272    1.293    2.277    2.278
 cp_fm_syevd_base                   549 11.7    1.122    2.251    1.122    2.251
 fft_wrap_pw1pw2_30                 991 10.5    0.063    0.073    1.887    2.100
 Vh_1c_gg_integrals                 671  8.4    0.071    0.444    1.582    1.914
 transfer_pw2rs_10                  318 12.0    0.582    0.635    1.633    1.907
 copy_fm_to_dbcsr                  2384  9.9    0.011    0.011    1.796    1.885
 scale_and_distribute              1342 10.4    1.669    1.866    1.669    1.866
 integrate_four_center_main         811 10.3    0.122    0.365    1.318    1.809
 powell_optimize                 697117 11.0    1.707    1.773    1.707    1.773
 qs_ot_get_orbitals                 531  8.0    0.002    0.002    1.715    1.735
 mp_sum_dv                        58572 12.1    1.569    1.681    1.569    1.681
 integrate_four_center_bin        52827 11.3    1.197    1.444    1.197    1.444
 calc_screening_functions             1 10.0    0.524    0.533    1.402    1.441
 mp_alltoall_i11v                 13513 12.0    1.420    1.421    1.420    1.421
 arnoldi_extremal                   533  9.0    0.009    0.010    1.309    1.323
 cp_dbcsr_sm_fm_multiply_core       890  9.5    0.002    0.002    1.284    1.321
 arnoldi_normal_ev                  535 10.0    0.009    0.012    1.306    1.321
 mp_sum_l                         34396 10.7    1.159    1.279    1.159    1.279
 calc_pair_dist_radii                 1 10.0    0.385    0.394    1.214    1.252
 build_subspace                     535 11.0    0.045    0.047    1.075    1.082
 make_images_sizes                14872 12.8    0.015    0.017    1.011    1.079
 mp_alltoall_i44                  14872 13.8    0.995    1.063    0.995    1.063
 parser_read_line                269688  4.0    0.095    0.102    1.005    1.021
 multiply_cannon_metrocomm4      163592 12.8    0.485    0.503    0.946    1.004
 dbcsr_desymmetrize_deep           1450 10.9    0.027    0.031    0.970    0.994
 integrate_four_center_getP         811 10.3    0.130    0.136    0.889    0.940
 parser_read_line_low               296  5.0    0.096    0.412    0.910    0.924
 multiply_cannon_metrocomm2      156156 12.8    0.463    0.484    0.851    0.911
 tddfpt_orthonormalize_psi1_psi       8  6.9    0.014    0.016    0.903    0.903
 calculate_dm_sparse                532  7.0    0.002    0.002    0.886    0.897
 multiply_cannon_metrocomm3      178464 12.8    0.282    0.289    0.723    0.839
 broadcast_input_information        296  6.0    0.229    0.252    0.815    0.831
 calculate_rho_atom_coeff           673  6.8    0.097    0.178    0.817    0.819
 integrate_four_center_dist_KS      811 10.3    0.132    0.138    0.809    0.817
 pw_poisson_rebuild                 671  9.4    0.001    0.001    0.785    0.800
 ps_wavelet_create                    1 10.0    0.000    0.000    0.785    0.799
 RS_z_slice_distribution              1 11.0    0.678    0.739    0.785    0.799
 fft_wrap_pw1pw2_10                 991 10.5    0.016    0.017    0.759    0.798
 tddfpt_print_nto_analysis            1  6.0    0.002    0.003    0.790    0.790
 dbcsr_make_images_dense          11654 11.9    0.184    0.205    0.540    0.771
 dbcsr_matrix_vector_mult         10690 12.0    0.094    0.100    0.505    0.767
 cp_dbcsr_plus_fm_fm_t              141  9.0    0.002    0.002    0.659    0.664
 mp_rank_compare                  10258 13.3    0.615    0.656    0.615    0.656
 multiply_cannon_metrocomm1      178464 12.8    0.197    0.204    0.487    0.650
 hybrid_alltoall_any              16322 13.6    0.131    0.145    0.592    0.638
 dbcsr_create_new                155782 12.3    0.425    0.449    0.576    0.607
 tddfpt_apply_energy_diff             7  8.0    0.001    0.001    0.596    0.596
 prepare_dr1dr                      700 11.2    0.499    0.591    0.499    0.591
 vxc_of_r_new                      2124  9.0    0.003    0.047    0.036    0.577
 tddfpt_compute_residual_vects        6  7.0    0.001    0.001    0.572    0.572
 mp_allgather_i34                  7436 11.8    0.479    0.565    0.479    0.565
 dbcsr_make_dense_low             34146 12.8    0.171    0.178    0.268    0.558
 mp_alltoall_i22                   5471 12.0    0.427    0.525    0.427    0.525
 dbcsr_finalize                   16936 11.3    0.079    0.117    0.365    0.522
 parallel_gemm_fm                  1193  8.4    0.001    0.002    0.494    0.519
 parallel_gemm_fm_gemm             1193  9.4    0.002    0.002    0.493    0.518
 cp_fm_gemm                        1193 10.4    0.491    0.516    0.491    0.516
 mp_irecv_dv                     407106 13.4    0.329    0.498    0.329    0.498
 mp_alltoall_z11v                   991 13.5    0.459    0.498    0.459    0.498
 cp_fm_redistribute_start           549 11.7    0.383    0.396    0.483    0.491
 make_images_data                 14872 12.8    0.147    0.190    0.345    0.454
 pw_scale                           992  9.5    0.361    0.451    0.361    0.451
 cp_fm_geeig                         20  7.0    0.001    0.001    0.430    0.431
 multiply_cannon_multrec         178464 12.8    0.233    0.383    0.265    0.412
 qs_energies_init_hamiltonians        1  3.0    0.000    0.000    0.409    0.409
 build_core_hamiltonian_matrix        1  4.0    0.000    0.000    0.402    0.402
 overlap_condnum                      1  5.0    0.000    0.000    0.400    0.401
 update_ks_atom                     671  8.2    0.072    0.121    0.328    0.386
 dbcsr_col_vec_to_rep_row         12378 12.4    0.085    0.092    0.225    0.369
 arnoldi_conjugate_gradient           5  6.0    0.009    0.011    0.365    0.365
 mp_bcast_i_src                    1184  7.0    0.303    0.355    0.303    0.355
 dbcsr_special_finalize           37180 12.8    0.088    0.091    0.293    0.349
 dbcsr_iterator_start            161740 12.6    0.161    0.282    0.198    0.344
 tddfpt_construct_ground_state_       1  6.0    0.000    0.000    0.333    0.336
 ot_new_cg_direction                178  9.0    0.002    0.002    0.335    0.335
 mp_bcast_am_src                    296  7.0    0.257    0.286    0.278    0.334
 Gram_Schmidt_ortho               10347 12.0    0.011    0.016    0.261    0.323
 xz_to_yz                           673 11.8    0.024    0.028    0.305    0.320
 init_scf_run                         1  3.0    0.000    0.000    0.311    0.311
 scf_env_initial_rho_setup            1  4.0    0.000    0.000    0.311    0.311
 apply_preconditioner_dbcsr         180 10.0    0.000    0.000    0.292    0.302
 apply_single                       180 11.0    0.000    0.000    0.291    0.302
 dbcsr_merge_all                  15259 12.2    0.162    0.222    0.203    0.294
 mp_isend_iv                     350384 13.8    0.267    0.291    0.267    0.291
 make_dense_data                  34146 13.8    0.018    0.122    0.026    0.289
 mp_cart_sub                       2901 11.9    0.285    0.288    0.285    0.288
 mp_bcast_dm                      16640  9.3    0.269    0.280    0.269    0.280
 mp_cart_create                    4138 10.2    0.244    0.269    0.251    0.278
 dbcsr_sym_matrix_vector_mult      1688  7.6    0.027    0.029    0.246    0.267
 qs_init_subsys                       1  2.0    0.004    0.004    0.262    0.262
 xc_2nd_deriv_of_r                  560 10.0    0.003    0.046    0.016    0.256
 dbcsr_destroy                   149709 11.5    0.182    0.189    0.244    0.255
 rs_grid_create                     677  9.4    0.004    0.005    0.058    0.253
 qs_env_setup                         1  3.0    0.000    0.000    0.252    0.252
 qs_env_rebuild_pw_env                2  3.5    0.000    0.000    0.251    0.252
 pw_env_rebuild                       1  5.0    0.001    0.001    0.250    0.251
 offload_create_buffer              679 10.4    0.054    0.250    0.054    0.250
 create_kernel_env                    1  6.0    0.000    0.000    0.210    0.248
 xc_prep_2nd_deriv                    1  7.0    0.000    0.000    0.210    0.248
 cp_fm_trace_a1b1t1_aa            10080  8.0    0.047    0.050    0.244    0.246
 dbcsr_data_new                  408602 13.0    0.171    0.239    0.171    0.239
 dbcsr_iterator_stop             161740 12.6    0.124    0.193    0.152    0.229
 pw_grid_setup                        4  6.0    0.000    0.000    0.226    0.226
 yz_to_xz                           318 14.0    0.018    0.020    0.196    0.226
 pw_grid_setup_internal               4  7.0    0.006    0.008    0.226    0.226
 dbcsr_add_d                       3655  8.5    0.005    0.006    0.052    0.224
 dbcsr_add_anytype                 3655  9.5    0.009    0.029    0.047    0.220
 rs_scatter_matrices                673  7.8    0.007    0.011    0.215    0.218
 dbcsr_data_release              737078 13.2    0.185    0.217    0.185    0.217
 dbcsr_new_transposed              3565 10.8    0.020    0.022    0.205    0.211
 mp_sum_b                         11656 10.9    0.197    0.203    0.197    0.203
 calculate_rho0_atom               2688  9.2    0.196    0.198    0.196    0.198
 dbcsr_make_dense                  5011 11.1    0.020    0.021    0.108    0.197
 setup_buffer_matrices            14872 11.8    0.055    0.058    0.170    0.184
 mp_irecv_iv                     351276 13.8    0.155    0.171    0.155    0.171
 dbcsr_work_create                54075 12.4    0.091    0.104    0.133    0.164
 DGKS_ortho                       10347 12.0    0.011    0.014    0.112    0.162
 integrate_four_center_load         811 10.3    0.002    0.002    0.090    0.161
 mp_bcast_dv                      12927 13.4    0.059    0.160    0.059    0.160
 pw_grid_sort                         4  8.0    0.107    0.110    0.156    0.159
 hfx_load_balance                     1 11.0    0.000    0.000    0.088    0.159
 hfx_load_balance_range               1 12.0    0.000    0.000    0.078    0.149
 dbcsr_redistribute                 186 12.0    0.005    0.006    0.145    0.148
 dbcsr_make_undense                5011 11.1    0.033    0.065    0.065    0.147
 xc_pw_smooth                       178 10.0    0.001    0.001    0.093    0.135
 dbcsr_work_destroy_all           54075 13.4    0.086    0.098    0.114    0.134
 arnoldi_init                       535 11.0    0.006    0.008    0.120    0.133
 mp_bcast_b                       10888 12.0    0.085    0.130    0.085    0.130
 quick_finalize                   26691 14.0    0.056    0.069    0.094    0.121
 tddfpt_orthogonalize_psi1_psi0       8  6.9    0.000    0.000    0.097    0.119
 dbcsr_mm_multrec_init             7436 11.8    0.014    0.018    0.106    0.116
 dbcsr_copy                       15499  9.3    0.053    0.056    0.108    0.113
 dbcsr_merge_single_wm            12125 13.2    0.060    0.072    0.074    0.106
 dbcsr_mm_csr_init                 7436 12.8    0.073    0.081    0.092    0.101
 dbcsr_dot                         1775  8.7    0.011    0.014    0.091    0.100
 dbcsr_switch_data_area           74077 13.9    0.068    0.071    0.091    0.095
 dbcsr_make_index_list            37180 11.8    0.085    0.094    0.085    0.094
 dbcsr_make_untransposed_blocks    9555 10.7    0.052    0.060    0.085    0.093
 create_fast_row_vec_access       14066 12.0    0.055    0.060    0.087    0.092
 create_fast_col_vec_access       14066 12.0    0.053    0.057    0.083    0.088
 write_mo_set_to_restart            531  5.0    0.008    0.031    0.080    0.088
 -------------------------------------------------------------------------------

 The number of warnings for this run is : 2
 
 -------------------------------------------------------------------------------
  **** **** ******  **  PROGRAM ENDED AT                 2025-04-28 09:36:38.955
 ***** ** ***  *** **   PROGRAM RAN ON                              i04r04c06s02
 **    ****   ******    PROGRAM RAN BY                                   di38fab
 ***** **    ** ** **   PROGRAM PROCESS ID                               2546411
  **** **  *******  **  PROGRAM STOPPED IN /hppfs/scratch/04/di38fab/07_MOL_non_
                                           aug/05_MOL_non_aug/05_MOL/W4-11+ALK/l
                                           i2_ch2n_2/cc-pVDZ/TDDFT
