 DBCSR| CPU Multiplication driver                                           BLAS (U)
 DBCSR| Multrec recursion limit                                              512 (U)
 DBCSR| Multiplication stack size                                           1000 (D)
 DBCSR| Maximum elements for images                                    UNLIMITED (U)
 DBCSR| Multiplicative factor virtual images                                   1 (U)
 DBCSR| Use multiplication densification                                       T (D)
 DBCSR| Multiplication size stacks                                             3 (U)
 DBCSR| Use memory pool for CPU allocation                                     F (U)
 DBCSR| Number of 3D layers                                               SINGLE (U)
 DBCSR| Use MPI memory allocation                                              F (U)
 DBCSR| Use RMA algorithm                                                      F (U)
 DBCSR| Use Communication thread                                               T (U)
 DBCSR| Communication thread load                                             75 (D)
 DBCSR| MPI: My process id                                                     0
 DBCSR| MPI: Number of processes                                             192
 DBCSR| OMP: Current number of threads                                         4
 DBCSR| OMP: Max number of threads                                             4
 DBCSR| Split modifier for TAS multiplication algorithm                  1.0E+00 (U)


  **** **** ******  **  PROGRAM STARTED AT               2025-04-20 15:03:07.609
 ***** ** ***  *** **   PROGRAM STARTED ON                          i05r09c04s09
 **    ****   ******    PROGRAM STARTED BY                               di38fab
 ***** **    ** ** **   PROGRAM PROCESS ID                               3440626
  **** **  *******  **  PROGRAM STARTED IN /hppfs/scratch/04/di38fab/05_MOL/W4-1
                                           1+ALK/allene/SZV/TDDFT/1e-4

 CP2K| version string:                 CP2K version 2025.1 (Development Version)
 CP2K| source code revision number:                             unknown revision
 CP2K| cp2kflags: omp libint fftw3 libxc parallel scalapack max_contr=4         
 CP2K| is freely available from                            https://www.cp2k.org/
 CP2K| Program compiled at                         Thu Apr 10 16:20:23 CEST 2025
 CP2K| Program compiled on                                               login01
 CP2K| Program compiled for                                        Supermuc-foss
 CP2K| Data directory path                  /hppfs/work/pn36zo/di38fab/cp2k/data
 CP2K| Input file name                                                    GW.inp

 GLOBAL| Force Environment number                                              1
 GLOBAL| Basis set file name            /hppfs/scratch/04/di38fab/04_TMD/BASIS_A
 GLOBAL| Potential file name            /hppfs/work/pn36zo/di38fab/cp2k/data/ALL
 GLOBAL| MM Potential file name                                     MM_POTENTIAL
 GLOBAL| Coordinate file name                                      __STD_INPUT__
 GLOBAL| Method name                                                        CP2K
 GLOBAL| Project name                                                       MoS2
 GLOBAL| Run type                                                         ENERGY
 GLOBAL| FFT library                                                       FFTW3
 GLOBAL| Diagonalization library                                       ScaLAPACK
 GLOBAL| DGEMM library                                                      BLAS
 GLOBAL| Orthonormality check for eigenvectors                          DISABLED
 GLOBAL| Matrix multiplication library                                 ScaLAPACK
 GLOBAL| All-to-all communication in single precision                          F
 GLOBAL| FFTs using library dependent lengths                                  F
 GLOBAL| Grid backend                                                       AUTO
 GLOBAL| Global print level                                               MEDIUM
 GLOBAL| MPI I/O enabled                                                       T
 GLOBAL| Total number of message passing processes                           192
 GLOBAL| Number of threads for this process                                    4
 GLOBAL| This output is from process                                           0
 GLOBAL| OpenMP stack size per thread (OMP_STACKSIZE)                    default
 GLOBAL| CPU model name             Intel(R) Xeon(R) Platinum 8174 CPU @ 3.10GHz

 MEMORY| system memory details [Kb]
 MEMORY|                        rank 0           min           max       average
 MEMORY| MemTotal             98436664      98436660      98436664      98436662
 MEMORY| MemFree              83943072      83821492      84643780      84021832
 MEMORY| Buffers                     0             0             0             0
 MEMORY| Cached                2384672       2383896       2418380       2396842
 MEMORY| Slab                  1242460       1163260       1267848       1242414
 MEMORY| SReclaimable           273292        266828        285200        276135
 MEMORY| MemLikelyFree        86601036      86512032      87295556      86694810


 *** Fundamental physical constants (SI units) ***

 *** Literature: B. J. Mohr and B. N. Taylor,
 ***             CODATA recommended values of the fundamental physical
 ***             constants: 2006, Web Version 5.1
 ***             http://physics.nist.gov/constants

 Speed of light in vacuum [m/s]                             2.99792458000000E+08
 Magnetic constant or permeability of vacuum [N/A**2]       1.25663706143592E-06
 Electric constant or permittivity of vacuum [F/m]          8.85418781762039E-12
 Planck constant (h) [J*s]                                  6.62606896000000E-34
 Planck constant (h-bar) [J*s]                              1.05457162825177E-34
 Elementary charge [C]                                      1.60217648700000E-19
 Electron mass [kg]                                         9.10938215000000E-31
 Electron g factor [ ]                                     -2.00231930436220E+00
 Proton mass [kg]                                           1.67262163700000E-27
 Fine-structure constant                                    7.29735253760000E-03
 Rydberg constant [1/m]                                     1.09737315685270E+07
 Avogadro constant [1/mol]                                  6.02214179000000E+23
 Boltzmann constant [J/K]                                   1.38065040000000E-23
 Atomic mass unit [kg]                                      1.66053878200000E-27
 Bohr radius [m]                                            5.29177208590000E-11

 *** Conversion factors ***

 [u] -> [a.u.]                                              1.82288848426455E+03
 [Angstrom] -> [Bohr] = [a.u.]                              1.88972613288564E+00
 [a.u.] = [Bohr] -> [Angstrom]                              5.29177208590000E-01
 [a.u.] -> [s]                                              2.41888432650478E-17
 [a.u.] -> [fs]                                             2.41888432650478E-02
 [a.u.] -> [J]                                              4.35974393937059E-18
 [a.u.] -> [N]                                              8.23872205491840E-08
 [a.u.] -> [K]                                              3.15774647902944E+05
 [a.u.] -> [kJ/mol]                                         2.62549961709828E+03
 [a.u.] -> [kcal/mol]                                       6.27509468713739E+02
 [a.u.] -> [Pa]                                             2.94210107994716E+13
 [a.u.] -> [bar]                                            2.94210107994716E+08
 [a.u.] -> [atm]                                            2.90362800883016E+08
 [a.u.] -> [eV]                                             2.72113838565563E+01
 [a.u.] -> [Hz]                                             6.57968392072181E+15
 [a.u.] -> [1/cm] (wave numbers)                            2.19474631370540E+05
 [a.u./Bohr**2] -> [1/cm]                                   5.14048714338585E+03
 

 CELL_TOP| Volume [angstrom^3]:                                     27000.000000
 CELL_TOP| Vector a [angstrom    30.000     0.000     0.000   |a| =    30.000000
 CELL_TOP| Vector b [angstrom     0.000    30.000     0.000   |b| =    30.000000
 CELL_TOP| Vector c [angstrom     0.000     0.000    30.000   |c| =    30.000000
 CELL_TOP| Angle (b,c), alpha [degree]:                                90.000000
 CELL_TOP| Angle (a,c), beta  [degree]:                                90.000000
 CELL_TOP| Angle (a,b), gamma [degree]:                                90.000000
 CELL_TOP| Numerically orthorhombic:                                         YES
 CELL_TOP| Periodicity                                                      NONE

 GENERATE|  Preliminary Number of Bonds generated:                             0
 GENERATE|  Achieved consistency in connectivity generation.

 CELL| Volume [angstrom^3]:                                         27000.000000
 CELL| Vector a [angstrom]:      30.000     0.000     0.000   |a| =    30.000000
 CELL| Vector b [angstrom]:       0.000    30.000     0.000   |b| =    30.000000
 CELL| Vector c [angstrom]:       0.000     0.000    30.000   |c| =    30.000000
 CELL| Angle (b,c), alpha [degree]:                                    90.000000
 CELL| Angle (a,c), beta  [degree]:                                    90.000000
 CELL| Angle (a,b), gamma [degree]:                                    90.000000
 CELL| Numerically orthorhombic:                                             YES
 CELL| Periodicity                                                          NONE

 CELL_REF| Volume [angstrom^3]:                                     27000.000000
 CELL_REF| Vector a [angstrom    30.000     0.000     0.000   |a| =    30.000000
 CELL_REF| Vector b [angstrom     0.000    30.000     0.000   |b| =    30.000000
 CELL_REF| Vector c [angstrom     0.000     0.000    30.000   |c| =    30.000000
 CELL_REF| Angle (b,c), alpha [degree]:                                90.000000
 CELL_REF| Angle (a,c), beta  [degree]:                                90.000000
 CELL_REF| Angle (a,b), gamma [degree]:                                90.000000
 CELL_REF| Numerically orthorhombic:                                         YES
 CELL_REF| Periodicity                                                      NONE

 *******************************************************************************
 *******************************************************************************
 **                                                                           **
 **     #####                         ##              ##                      **
 **    ##   ##            ##          ##              ##                      **
 **   ##     ##                       ##            ######                    **
 **   ##     ##  ##   ##  ##   #####  ##  ##   ####   ##    #####    #####    **
 **   ##     ##  ##   ##  ##  ##      ## ##   ##      ##   ##   ##  ##   ##   **
 **   ##  ## ##  ##   ##  ##  ##      ####     ###    ##   ######   ######    **
 **    ##  ###   ##   ##  ##  ##      ## ##      ##   ##   ##       ##        **
 **     #######   #####   ##   #####  ##  ##  ####    ##    #####   ##        **
 **           ##                                                    ##        **
 **                                                                           **
 **                                                ... make the atoms dance   **
 **                                                                           **
 **            Copyright (C) by CP2K developers group (2000-2025)             **
 **                      J. Chem. Phys. 152, 194103 (2020)                    **
 **                                                                           **
 *******************************************************************************

 DFT| Spin restricted Kohn-Sham (RKS) calculation                            RKS
 DFT| Multiplicity                                                             1
 DFT| Number of spin states                                                    1
 DFT| Charge                                                                   0
 DFT| Self-interaction correction (SIC)                                       NO
 DFT| Cutoffs: density                                              1.000000E-10
 DFT|          gradient                                             1.000000E-10
 DFT|          tau                                                  1.000000E-10
 DFT|          cutoff_smoothing_range                               0.000000E+00
 DFT| XC density smoothing                                                  NONE
 DFT| XC derivatives                                                          PW

 FUNCTIONAL| PBE:
 FUNCTIONAL| J.P.Perdew, K.Burke, M.Ernzerhof, Phys. Rev. Letter, vol. 77, n 18,
 FUNCTIONAL|  pp. 3865-3868, (1996)sx=0.750sc=1.000{spin unpolarized}           


 QS| Method:                                                                GAPW
 QS| Density plane wave grid type                        NON-SPHERICAL FULLSPACE
 QS| Number of grid levels:                                                    4
 QS| Density cutoff [a.u.]:                                                250.0
 QS| Multi grid cutoff [a.u.]: 1) grid level                               250.0
 QS|                           2) grid level                                83.3
 QS|                           3) grid level                                27.8
 QS|                           4) grid level                                 9.3
 QS| Grid level progression factor:                                          3.0
 QS| Relative density cutoff [a.u.]:                                        50.0
 QS| Interaction thresholds: eps_pgf_orb:                                1.0E-12
 QS|                         eps_filter_matrix:                          0.0E+00
 QS|                         eps_core_charge:                            1.0E-14
 QS|                         eps_rho_gspace:                             1.0E-12
 QS|                         eps_rho_rspace:                             1.0E-12
 QS|                         eps_gvg_rspace:                             1.0E-06
 QS|                         eps_ppl:                                    1.0E-02
 QS|                         eps_ppnl:                                   1.0E-08
 QS| GAPW|      One center basis from orbital basis primitives
 QS| GAPW|                   eps_fit:                                    1.0E-04
 QS| GAPW|                   eps_iso:                                    1.0E-12
 QS| GAPW|                   eps_svd:                                    1.0E-08
 QS| GAPW|                   eps_cpc:                                    1.0E-12
 QS| GAPW|   atom-r-grid: quadrature:                                     GC_LOG
 QS| GAPW|      atom-s-grid:  max l :                                          4
 QS| GAPW|      max_l_rho0 :                                                   2


 ATOMIC KIND INFORMATION

  1. Atomic kind: C                                     Number of atoms:       3

     Orbital Basis Set                                         aug-SZV-MOLOPT-ae

       Number of orbital shell sets:                                           2
       Number of orbital shells:                                               6
       Number of primitive Cartesian functions:                               13
       Number of Cartesian basis functions:                                   15
       Number of spherical basis functions:                                   14
       Norm type:                                                              2

       Normalised Cartesian orbitals:

                        Set   Shell   Orbital            Exponent    Coefficient

                          1       1    2s                0.070000       0.000000
                                                         0.143687       0.040037
                                                         0.313471       0.177689
                                                         0.721783       0.139661
                                                         1.876046      -0.038599
                                                         6.036200      -0.128975
                                                        30.497239      -0.122578

                          1       2    3s                0.070000      -0.142268
                                                         0.143687       0.288819
                                                         0.313471       0.010360
                                                         0.721783       0.175994
                                                         1.876046       0.000000
                                                         6.036200       0.000000
                                                        30.497239       0.000000

                          1       3    3px               0.070000       0.000000
                                                         0.143687       0.012825
                                                         0.313471       0.142381
                                                         0.721783       0.396426
                                                         1.876046       0.544234
                                                         6.036200       0.508157
                                                        30.497239       0.384077
                          1       3    3py               0.070000       0.000000
                                                         0.143687       0.012825
                                                         0.313471       0.142381
                                                         0.721783       0.396426
                                                         1.876046       0.544234
                                                         6.036200       0.508157
                                                        30.497239       0.384077
                          1       3    3pz               0.070000       0.000000
                                                         0.143687       0.012825
                                                         0.313471       0.142381
                                                         0.721783       0.396426
                                                         1.876046       0.544234
                                                         6.036200       0.508157
                                                        30.497239       0.384077

                          1       4    4px               0.070000       0.076505
                                                         0.143687      -0.086104
                                                         0.313471       0.010230
                                                         0.721783       0.129894
                                                         1.876046       0.000000
                                                         6.036200       0.000000
                                                        30.497239       0.000000
                          1       4    4py               0.070000       0.076505
                                                         0.143687      -0.086104
                                                         0.313471       0.010230
                                                         0.721783       0.129894
                                                         1.876046       0.000000
                                                         6.036200       0.000000
                                                        30.497239       0.000000
                          1       4    4pz               0.070000       0.076505
                                                         0.143687      -0.086104
                                                         0.313471       0.010230
                                                         0.721783       0.129894
                                                         1.876046       0.000000
                                                         6.036200       0.000000
                                                        30.497239       0.000000

                          1       5    4dx2              0.070000       0.004316
                                                         0.143687       0.012639
                                                         0.313471       0.125057
                                                         0.721783       0.080411
                                                         1.876046       0.000000
                                                         6.036200       0.000000
                                                        30.497239       0.000000
                          1       5    4dxy              0.070000       0.007476
                                                         0.143687       0.021892
                                                         0.313471       0.216606
                                                         0.721783       0.139276
                                                         1.876046       0.000000
                                                         6.036200       0.000000
                                                        30.497239       0.000000
                          1       5    4dxz              0.070000       0.007476
                                                         0.143687       0.021892
                                                         0.313471       0.216606
                                                         0.721783       0.139276
                                                         1.876046       0.000000
                                                         6.036200       0.000000
                                                        30.497239       0.000000
                          1       5    4dy2              0.070000       0.004316
                                                         0.143687       0.012639
                                                         0.313471       0.125057
                                                         0.721783       0.080411
                                                         1.876046       0.000000
                                                         6.036200       0.000000
                                                        30.497239       0.000000
                          1       5    4dyz              0.070000       0.007476
                                                         0.143687       0.021892
                                                         0.313471       0.216606
                                                         0.721783       0.139276
                                                         1.876046       0.000000
                                                         6.036200       0.000000
                                                        30.497239       0.000000
                          1       5    4dz2              0.070000       0.004316
                                                         0.143687       0.012639
                                                         0.313471       0.125057
                                                         0.721783       0.080411
                                                         1.876046       0.000000
                                                         6.036200       0.000000
                                                        30.497239       0.000000

                          2       1    1s              742.737049       0.929185
                                                       136.180025       1.402437
                                                        38.098264       1.841991
                                                        13.087782       1.817278
                                                         5.082369       1.004768
                                                         2.093200       0.161650

     RI Auxiliary Basis Set             RI_aug-SZV-MOLOPT-ae_N_RI_048_s_p_d_f_g_

       Number of orbital shell sets:                                          14
       Number of orbital shells:                                              14
       Number of primitive Cartesian functions:                               14
       Number of Cartesian basis functions:                                   62
       Number of spherical basis functions:                                   48
       Norm type:                                                              2

       Normalised Cartesian orbitals:

                        Set   Shell   Orbital            Exponent    Coefficient

                          1       1    1s                0.182132       0.198701

                          2       1    7px               0.213594       0.206979
                          2       1    7py               0.213594       0.206979
                          2       1    7pz               0.213594       0.206979

                          3       1   10dx2              0.381125       0.304282
                          3       1   10dxy              0.381125       0.527033
                          3       1   10dxz              0.381125       0.527033
                          3       1   10dy2              0.381125       0.304282
                          3       1   10dyz              0.381125       0.527033
                          3       1   10dz2              0.381125       0.304282

                          4       1    2s                0.433905       0.381027

                          5       1   12fx3              0.524446       0.344573
                          5       1   12fx2y             0.524446       0.770488
                          5       1   12fx2z             0.524446       0.770488
                          5       1   12fxy2             0.524446       0.770488
                          5       1   12fxyz             0.524446       1.334524
                          5       1   12fxz2             0.524446       0.770488
                          5       1   12fy3              0.524446       0.344573
                          5       1   12fy2z             0.524446       0.770488
                          5       1   12fyz2             0.524446       0.770488
                          5       1   12fz3              0.524446       0.344573

                          6       1    8px               0.915857       1.277099
                          6       1    8py               0.915857       1.277099
                          6       1    8pz               0.915857       1.277099

                          7       1   14gx4              1.217666       1.912659
                          7       1   14gx3y             1.217666       5.060419
                          7       1   14gx3z             1.217666       5.060419
                          7       1   14gx2y2            1.217666       6.532973
                          7       1   14gx2yz            1.217666      11.315442
                          7       1   14gx2z2            1.217666       6.532973
                          7       1   14gxy3             1.217666       5.060419
                          7       1   14gxy2z            1.217666      11.315442
                          7       1   14gxyz2            1.217666      11.315442
                          7       1   14gxz3             1.217666       5.060419
                          7       1   14gy4              1.217666       1.912659
                          7       1   14gy3z             1.217666       5.060419
                          7       1   14gy2z2            1.217666       6.532973
                          7       1   14gyz3             1.217666       5.060419
                          7       1   14gz4              1.217666       1.912659

                          8       1   11dx2              1.581488       3.670921
                          8       1   11dxy              1.581488       6.358221
                          8       1   11dxz              1.581488       6.358221
                          8       1   11dy2              1.581488       3.670921
                          8       1   11dyz              1.581488       6.358221
                          8       1   11dz2              1.581488       3.670921

                          9       1    3s                1.620693       1.023730

                         10       1   13fx3              2.677157      13.496481
                         10       1   13fx2y             2.677157      30.179050
                         10       1   13fx2z             2.677157      30.179050
                         10       1   13fxy2             2.677157      30.179050
                         10       1   13fxyz             2.677157      52.271648
                         10       1   13fxz2             2.677157      30.179050
                         10       1   13fy3              2.677157      13.496481
                         10       1   13fy2z             2.677157      30.179050
                         10       1   13fyz2             2.677157      30.179050
                         10       1   13fz3              2.677157      13.496481

                         11       1    4s                5.999661       2.732154

                         12       1    9px               9.284861      23.102519
                         12       1    9py               9.284861      23.102519
                         12       1    9pz               9.284861      23.102519

                         13       1    5s               22.224963       7.295262

                         14       1    6s               82.329769      19.479498

       Atomic covalent radius [Angstrom]:                                  0.770

       Atomic van der Waals radius [Angstrom]:                             1.700

     The atoms of this atomic kind are PAW atoms (GAPW):
       Hard Gaussian function radius:                                      1.512
       Rho0 radius:                                                        1.512
       Maximum GTO radius used for PAW projector construction:            24.566

     GAPW Soft Basis Set                                  aug-SZV-MOLOPT-ae_soft

       Number of orbital shell sets:                                           2
       Number of orbital shells:                                               6
       Number of primitive Cartesian functions:                                6
       Number of Cartesian basis functions:                                   15
       Number of spherical basis functions:                                   14
       Norm type:                                                              2

       Normalised Cartesian orbitals:

                        Set   Shell   Orbital            Exponent    Coefficient

                          1       1    2s                0.070000       0.000000
                                                         0.143687       0.040037
                                                         0.313471       0.177689
                                                         0.721783       0.139661
                                                         1.876046      -0.038599

                          1       2    3s                0.070000      -0.142268
                                                         0.143687       0.288819
                                                         0.313471       0.010360
                                                         0.721783       0.175994
                                                         1.876046       0.000000

                          1       3    3px               0.070000       0.000000
                                                         0.143687       0.012825
                                                         0.313471       0.142381
                                                         0.721783       0.396426
                                                         1.876046       0.544234
                          1       3    3py               0.070000       0.000000
                                                         0.143687       0.012825
                                                         0.313471       0.142381
                                                         0.721783       0.396426
                                                         1.876046       0.544234
                          1       3    3pz               0.070000       0.000000
                                                         0.143687       0.012825
                                                         0.313471       0.142381
                                                         0.721783       0.396426
                                                         1.876046       0.544234

                          1       4    4px               0.070000       0.076505
                                                         0.143687      -0.086104
                                                         0.313471       0.010230
                                                         0.721783       0.129894
                                                         1.876046       0.000000
                          1       4    4py               0.070000       0.076505
                                                         0.143687      -0.086104
                                                         0.313471       0.010230
                                                         0.721783       0.129894
                                                         1.876046       0.000000
                          1       4    4pz               0.070000       0.076505
                                                         0.143687      -0.086104
                                                         0.313471       0.010230
                                                         0.721783       0.129894
                                                         1.876046       0.000000

                          1       5    4dx2              0.070000       0.004316
                                                         0.143687       0.012639
                                                         0.313471       0.125057
                                                         0.721783       0.080411
                                                         1.876046       0.000000
                          1       5    4dxy              0.070000       0.007476
                                                         0.143687       0.021892
                                                         0.313471       0.216606
                                                         0.721783       0.139276
                                                         1.876046       0.000000
                          1       5    4dxz              0.070000       0.007476
                                                         0.143687       0.021892
                                                         0.313471       0.216606
                                                         0.721783       0.139276
                                                         1.876046       0.000000
                          1       5    4dy2              0.070000       0.004316
                                                         0.143687       0.012639
                                                         0.313471       0.125057
                                                         0.721783       0.080411
                                                         1.876046       0.000000
                          1       5    4dyz              0.070000       0.007476
                                                         0.143687       0.021892
                                                         0.313471       0.216606
                                                         0.721783       0.139276
                                                         1.876046       0.000000
                          1       5    4dz2              0.070000       0.004316
                                                         0.143687       0.012639
                                                         0.313471       0.125057
                                                         0.721783       0.080411
                                                         1.876046       0.000000

                          2       1    1s                2.093200       0.161650

     AE Potential information for                                            ALL

       Description:                                       All-electron potential
                                          Krack, Parrinello, PCCP 2, 2105 (2000)

       Gaussian exponent of the core charge distribution:               4.109048
       Electronic configuration (s p d ...):                           4   2   0

  2. Atomic kind: H                                     Number of atoms:       4

     Orbital Basis Set                                         aug-SZV-MOLOPT-ae

       Number of orbital shell sets:                                           1
       Number of orbital shells:                                               4
       Number of primitive Cartesian functions:                                7
       Number of Cartesian basis functions:                                    6
       Number of spherical basis functions:                                    6
       Norm type:                                                              2

       Normalised Cartesian orbitals:

                        Set   Shell   Orbital            Exponent    Coefficient

                          1       1    1s                0.065428       0.000000
                                                         0.100112       0.016532
                                                         0.243077       0.102760
                                                         0.625955       0.185857
                                                         1.822143       0.188385
                                                         6.513144       0.143430
                                                        35.523221       0.095030

                          1       2    2s                0.065428       0.083549
                                                         0.100112       0.009605
                                                         0.243077       0.002524
                                                         0.625955       0.013457
                                                         1.822143       0.000000
                                                         6.513144       0.000000
                                                        35.523221       0.000000

                          1       3    3s                0.065428       0.037407
                                                         0.100112      -0.169070
                                                         0.243077      -0.018899
                                                         0.625955       0.012806
                                                         1.822143       0.000000
                                                         6.513144       0.000000
                                                        35.523221       0.000000

                          1       4    2px               0.065428       0.059908
                                                         0.100112      -0.023770
                                                         0.243077       0.000032
                                                         0.625955       0.017779
                                                         1.822143       0.000000
                                                         6.513144       0.000000
                                                        35.523221       0.000000
                          1       4    2py               0.065428       0.059908
                                                         0.100112      -0.023770
                                                         0.243077       0.000032
                                                         0.625955       0.017779
                                                         1.822143       0.000000
                                                         6.513144       0.000000
                                                        35.523221       0.000000
                          1       4    2pz               0.065428       0.059908
                                                         0.100112      -0.023770
                                                         0.243077       0.000032
                                                         0.625955       0.017779
                                                         1.822143       0.000000
                                                         6.513144       0.000000
                                                        35.523221       0.000000

     RI Auxiliary Basis Set             RI_aug-SZV-MOLOPT-ae_N_RI_007_s_p_d_f_g_

       Number of orbital shell sets:                                           5
       Number of orbital shells:                                               5
       Number of primitive Cartesian functions:                                5
       Number of Cartesian basis functions:                                    7
       Number of spherical basis functions:                                    7
       Norm type:                                                              2

       Normalised Cartesian orbitals:

                        Set   Shell   Orbital            Exponent    Coefficient

                          1       1    1s                0.148777       0.170731

                          2       1    5px               0.367452       0.407794
                          2       1    5py               0.367452       0.407794
                          2       1    5pz               0.367452       0.407794

                          3       1    2s                0.510503       0.430437

                          4       1    3s                1.106366       0.768837

                          5       1    4s                5.955292       2.716986

       Atomic covalent radius [Angstrom]:                                  0.320

       Atomic van der Waals radius [Angstrom]:                             1.090

     The atoms of this atomic kind are PAW atoms (GAPW):
       Hard Gaussian function radius:                                      1.200
       Rho0 radius:                                                        1.200
       Maximum GTO radius used for PAW projector construction:            24.566

     GAPW Soft Basis Set                                  aug-SZV-MOLOPT-ae_soft

       Number of orbital shell sets:                                           1
       Number of orbital shells:                                               4
       Number of primitive Cartesian functions:                                6
       Number of Cartesian basis functions:                                    6
       Number of spherical basis functions:                                    6
       Norm type:                                                              2

       Normalised Cartesian orbitals:

                        Set   Shell   Orbital            Exponent    Coefficient

                          1       1    1s                0.065428       0.000000
                                                         0.100112       0.016532
                                                         0.243077       0.102760
                                                         0.625955       0.185857
                                                         1.822143       0.188385
                                                         6.513144       0.000000

                          1       2    2s                0.065428       0.083549
                                                         0.100112       0.009605
                                                         0.243077       0.002524
                                                         0.625955       0.013457
                                                         1.822143       0.000000
                                                         6.513144       0.000000

                          1       3    3s                0.065428       0.037407
                                                         0.100112      -0.169070
                                                         0.243077      -0.018899
                                                         0.625955       0.012806
                                                         1.822143       0.000000
                                                         6.513144       0.000000

                          1       4    2px               0.065428       0.059908
                                                         0.100112      -0.023770
                                                         0.243077       0.000032
                                                         0.625955       0.017779
                                                         1.822143       0.000000
                                                         6.513144       0.000000
                          1       4    2py               0.065428       0.059908
                                                         0.100112      -0.023770
                                                         0.243077       0.000032
                                                         0.625955       0.017779
                                                         1.822143       0.000000
                                                         6.513144       0.000000
                          1       4    2pz               0.065428       0.059908
                                                         0.100112      -0.023770
                                                         0.243077       0.000032
                                                         0.625955       0.017779
                                                         1.822143       0.000000
                                                         6.513144       0.000000

     AE Potential information for                                            ALL

       Description:                                       All-electron potential
                                          Krack, Parrinello, PCCP 2, 2105 (2000)

       Gaussian exponent of the core charge distribution:              12.500000
       Electronic configuration (s p d ...):                           1   0   0


 MOLECULE KIND INFORMATION


 All atoms are their own molecule, skipping detailed information


 TOTAL NUMBERS AND MAXIMUM NUMBERS

  Total number of            - Atomic kinds:                                   2
                             - Atoms:                                          7
                             - Shell sets:                                    10
                             - Shells:                                        34
                             - Primitive Cartesian functions:                 67
                             - Cartesian basis functions:                     69
                             - Spherical basis functions:                     66

  Maximum angular momentum of the orbital basis functions:                     2


 MODULE QUICKSTEP: ATOMIC COORDINATES IN ANGSTROM

   Atom Kind Element         X             Y             Z       Z(eff)     Mass
      1    1 C     6     15.000000     15.000000     15.000000   6.0000  12.0107
      2    1 C     6     16.310515     15.000000     15.000000   6.0000  12.0107
      3    1 C     6     13.689485     15.000000     15.000000   6.0000  12.0107
      4    2 H     1     13.133940     15.790270     15.488418   1.0000   1.0079
      5    2 H     1     13.133940     14.209730     14.511582   1.0000   1.0079
      6    2 H     1     16.866060     15.488418     14.209730   1.0000   1.0079
      7    2 H     1     16.866060     14.511582     15.790270   1.0000   1.0079



 SCF PARAMETERS         Density guess:                                   RESTART
                        --------------------------------------------------------
                        max_scf:                                             500
                        max_scf_history:                                       0
                        max_diis:                                              4
                        --------------------------------------------------------
                        eps_scf:                                        1.00E-06
                        eps_scf_history:                                0.00E+00
                        eps_diis:                                       1.00E-01
                        eps_eigval:                                     1.00E-05
                        --------------------------------------------------------
                        level_shift [a.u.]:                             0.000000
                        --------------------------------------------------------
                        Outer loop SCF in use 
                        No variables optimised in outer loop
                        eps_scf                                         1.00E-06
                        max_scf                                               20
                        No outer loop optimization
                        step_size                                       5.00E-01

 PW_GRID| Information for grid number                                          1
 PW_GRID| Grid distributed over                                   192 processors
 PW_GRID| Real space group dimensions                                   192    1
 PW_GRID| the grid is blocked:                                                NO
 PW_GRID| Cutoff [a.u.]                                                    250.0
 PW_GRID| spherical cutoff:                                                   NO
 PW_GRID|   Bounds   1           -202     202                Points:         405
 PW_GRID|   Bounds   2           -202     202                Points:         405
 PW_GRID|   Bounds   3           -202     202                Points:         405
 PW_GRID| Volume element (a.u.^3)  0.2743E-02     Volume (a.u.^3)    182205.0337
 PW_GRID| Grid span                                                    FULLSPACE
 PW_GRID|   Distribution                         Average         Max         Min
 PW_GRID|   G-Vectors                           345990.2      346275      345870
 PW_GRID|   G-Rays                                 854.3         855         854
 PW_GRID|   Real Space Points                   345990.2      492075      328050

 PW_GRID| Information for grid number                                          2
 PW_GRID| Number of the reference grid                                         1
 PW_GRID| Grid distributed over                                   192 processors
 PW_GRID| Real space group dimensions                                   192    1
 PW_GRID| the grid is blocked:                                                NO
 PW_GRID| Cutoff [a.u.]                                                     83.3
 PW_GRID| spherical cutoff:                                                   NO
 PW_GRID|   Bounds   1           -120     119                Points:         240
 PW_GRID|   Bounds   2           -120     119                Points:         240
 PW_GRID|   Bounds   3           -120     119                Points:         240
 PW_GRID| Volume element (a.u.^3)  0.1318E-01     Volume (a.u.^3)    182205.0337
 PW_GRID| Grid span                                                    FULLSPACE
 PW_GRID|   Distribution                         Average         Max         Min
 PW_GRID|   G-Vectors                            72000.0       72240       71760
 PW_GRID|   G-Rays                                 300.0         301         299
 PW_GRID|   Real Space Points                    72000.0      115200       57600

 PW_GRID| Information for grid number                                          3
 PW_GRID| Number of the reference grid                                         1
 PW_GRID| Grid distributed over                                   192 processors
 PW_GRID| Real space group dimensions                                    12   16
 PW_GRID| the grid is blocked:                                                NO
 PW_GRID| Cutoff [a.u.]                                                     27.8
 PW_GRID| spherical cutoff:                                                   NO
 PW_GRID|   Bounds   1            -67      67                Points:         135
 PW_GRID|   Bounds   2            -67      67                Points:         135
 PW_GRID|   Bounds   3            -67      67                Points:         135
 PW_GRID| Volume element (a.u.^3)  0.7406E-01     Volume (a.u.^3)    182205.0337
 PW_GRID| Grid span                                                    FULLSPACE
 PW_GRID|   Distribution                         Average         Max         Min
 PW_GRID|   G-Vectors                            12814.5       12960       12690
 PW_GRID|   G-Rays                                  94.9          96          94
 PW_GRID|   Real Space Points                    12814.5       14580       11880

 PW_GRID| Information for grid number                                          4
 PW_GRID| Number of the reference grid                                         1
 PW_GRID| Grid distributed over                                   192 processors
 PW_GRID| Real space group dimensions                                    12   16
 PW_GRID| the grid is blocked:                                                NO
 PW_GRID| Cutoff [a.u.]                                                      9.3
 PW_GRID| spherical cutoff:                                                   NO
 PW_GRID|   Bounds   1            -40      39                Points:          80
 PW_GRID|   Bounds   2            -40      39                Points:          80
 PW_GRID|   Bounds   3            -40      39                Points:          80
 PW_GRID| Volume element (a.u.^3)  0.3559         Volume (a.u.^3)    182205.0337
 PW_GRID| Grid span                                                    FULLSPACE
 PW_GRID|   Distribution                         Average         Max         Min
 PW_GRID|   G-Vectors                             2666.7        2800        2560
 PW_GRID|   G-Rays                                  33.3          35          32
 PW_GRID|   Real Space Points                     2666.7        2800        2400

 POISSON| Solver                                                         WAVELET
 POISSON| Wavelet| Scaling function                                           40
 POISSON| Periodicity                                                       NONE

 RS_GRID| Information for grid number                                          1
 RS_GRID|   Bounds   1           -202     202                Points:         405
 RS_GRID|   Bounds   2           -202     202                Points:         405
 RS_GRID|   Bounds   3           -202     202                Points:         405
 RS_GRID| Real space distribution over                                  4 groups
 RS_GRID| Real space distribution along direction                              1
 RS_GRID| Border size                                                         33
 RS_GRID| Real space distribution over                                  6 groups
 RS_GRID| Real space distribution along direction                              2
 RS_GRID| Border size                                                         33
 RS_GRID| Real space distribution over                                  8 groups
 RS_GRID| Real space distribution along direction                              3
 RS_GRID| Border size                                                         33
 RS_GRID|   Distribution                         Average         Max         Min
 RS_GRID|   Planes                                 167.2         168         167
 RS_GRID|   Distribution                         Average         Max         Min
 RS_GRID|   Planes                                 133.5         134         133
 RS_GRID|   Distribution                         Average         Max         Min
 RS_GRID|   Planes                                 116.6         117         116

 RS_GRID| Information for grid number                                          2
 RS_GRID|   Bounds   1           -120     119                Points:         240
 RS_GRID|   Bounds   2           -120     119                Points:         240
 RS_GRID|   Bounds   3           -120     119                Points:         240
 RS_GRID| Real space distribution over                                  4 groups
 RS_GRID| Real space distribution along direction                              1
 RS_GRID| Border size                                                         36
 RS_GRID| Real space distribution over                                  6 groups
 RS_GRID| Real space distribution along direction                              2
 RS_GRID| Border size                                                         36
 RS_GRID| Real space distribution over                                  8 groups
 RS_GRID| Real space distribution along direction                              3
 RS_GRID| Border size                                                         36
 RS_GRID|   Distribution                         Average         Max         Min
 RS_GRID|   Planes                                 132.0         132         132
 RS_GRID|   Distribution                         Average         Max         Min
 RS_GRID|   Planes                                 112.0         112         112
 RS_GRID|   Distribution                         Average         Max         Min
 RS_GRID|   Planes                                 102.0         102         102

 RS_GRID| Information for grid number                                          3
 RS_GRID|   Bounds   1            -67      67                Points:         135
 RS_GRID|   Bounds   2            -67      67                Points:         135
 RS_GRID|   Bounds   3            -67      67                Points:         135
 RS_GRID| Real space fully replicated
 RS_GRID| Group size                                                           1

 RS_GRID| Information for grid number                                          4
 RS_GRID|   Bounds   1            -40      39                Points:          80
 RS_GRID|   Bounds   2            -40      39                Points:          80
 RS_GRID|   Bounds   3            -40      39                Points:          80
 RS_GRID| Real space fully replicated
 RS_GRID| Group size                                                           1

  HFX_INFO| Replica ID:                                                        1
  HFX_INFO| FRACTION:                                               0.2500000000
  HFX_INFO| Interaction Potential:                                       COULOMB
  HFX_INFO| EPS_SCHWARZ:                                                 1.0E-10
  HFX_INFO| EPS_SCHWARZ_FORCES                                           1.0E-08
  HFX_INFO| EPS_STORAGE_SCALING:                                         1.0E+00
  HFX_INFO| NBINS:                                                            64
  HFX_INFO| BLOCK_SIZE:                                                        1
  HFX_INFO| Number of periodic shells considered:                           NONE
  HFX_INFO| Number of periodic cells considered:                            NONE


 OVERLAP MATRIX CONDITION NUMBER
 1-Norm Condition Number (Estimate)
   CN : |A|*|A^-1|:  1.267E+001 *  6.416E+003   = 8.131E+004  Log(1-CN):  4.9102
 1-Norm and 2-Norm Condition Numbers using Diagonalization
   CN : |A|*|A^-1|:  1.267E+001 *  6.420E+003   = 8.135E+004  Log(1-CN):  4.9104
   CN : max/min ev:  6.625E+000 /  3.617E-004   = 1.832E+004  Log(2-CN):  4.2629

 Number of electrons:                                                         22
 Number of occupied orbitals:                                                 11
 Number of molecular orbitals:                                                11

 Number of orbital functions:                                                 66
 Number of independent orbital functions:                                     66

 Extrapolation method: initial_guess

 *** WARNING in qs_initial_guess.F:306 :: User requested to restart the    ***
 *** wavefunction from the file named: MoS2-RESTART.wfn. This file does    ***
 *** not exist. Please check the existence of the file or change properly  ***
 *** the value of the keyword WFN_RESTART_FILE_NAME. Calculation continues ***
 *** using ATOMIC GUESS.                                                   ***


 Atomic guess: The first density matrix is obtained in terms of atomic orbitals
               and electronic configurations assigned to each atomic kind

 Guess for atomic kind: C

 Electronic structure
    Total number of core electrons                                          0.00
    Total number of valence electrons                                       6.00
    Total number of electrons                                               6.00
    Multiplicity                                                   not specified
    S      2.00  2.00
    P      2.00


 *******************************************************************************
                  Iteration          Convergence                     Energy [au]
 *******************************************************************************
                          1        0.181972E-01                 -37.327047058214
                          2        0.113690E-01                 -37.327375013153
                          3        0.204442E-03                 -37.327563854518
                          4        0.318580E-06                 -37.327563914839

 Energy components [Hartree]           Total Energy ::          -37.327563914839
                                        Band Energy ::          -20.907151793925
                                     Kinetic Energy ::           37.918401132701
                                   Potential Energy ::          -75.245965047540
                                      Virial (-V/T) ::            1.984418192745
                                        Core Energy ::          -50.466619839572
                                          XC Energy ::           -4.803795746723
                                     Coulomb Energy ::           17.942851671456

 Orbital energies  State     L     Occupation   Energy[a.u.]          Energy[eV]

                       1     0          2.000      -9.826687         -267.397747
                       2     0          2.000      -0.471401          -12.827469

                       1     1          2.000      -0.155488           -4.231050


 Total Electron Density at R=0:                                       107.717880

 Guess for atomic kind: H

 Electronic structure
    Total number of core electrons                                          0.00
    Total number of valence electrons                                       1.00
    Total number of electrons                                               1.00
    Multiplicity                                                   not specified
    S      1.00


 *******************************************************************************
                  Iteration          Convergence                     Energy [au]
 *******************************************************************************
                          1        0.962691E-02                  -0.444368661081
                          2        0.109107E-02                  -0.444473520424
                          3        0.117094E-03                  -0.444476577889
                          4        0.851579E-07                  -0.444476596085

 Energy components [Hartree]           Total Energy ::           -0.444476596085
                                        Band Energy ::           -0.233451424826
                                     Kinetic Energy ::            0.431260327433
                                   Potential Energy ::           -0.875736923518
                                      Virial (-V/T) ::            2.030645686170
                                        Core Energy ::           -0.494218917327
                                          XC Energy ::           -0.231476335377
                                     Coulomb Energy ::            0.281218656618

 Orbital energies  State     L     Occupation   Energy[a.u.]          Energy[eV]

                       1     0          1.000      -0.233451           -6.352536


 Total Electron Density at R=0:                                         0.270947
 Re-scaling the density matrix to get the right number of electrons
                  # Electrons              Trace(P)               Scaling factor
                           22                22.000                        1.000


 SCF WAVEFUNCTION OPTIMIZATION

  ----------------------------------- OT ---------------------------------------
  Minimizer      : CG                  : conjugate gradient
  Preconditioner : FULL_SINGLE_INVERSE : inversion of 
                                         H + eS - 2*(Sc)(c^T*H*c+const)(Sc)^T
  Precond_solver : DEFAULT
  Line search    : 3PNT                : 3 energies
  stepsize       :    0.08000000                  energy_gap     :    0.08000000
  eps_taylor     :   0.10000E-15                  max_taylor     :             4
  ----------------------------------- OT ---------------------------------------

  Step     Update method      Time    Convergence         Total energy    Change
  ------------------------------------------------------------------------------

  HFX_MEM_INFO| Est. max. program size before HFX [MiB]:                     483
  HFX_MEM_INFO| Number of cart. primitive ERI's calculated:           1986425565
  HFX_MEM_INFO| Number of sph. ERI's calculated:                         3400029
  HFX_MEM_INFO| Number of sph. ERI's stored in-core:                     3400029
  HFX_MEM_INFO| Number of sph. ERI's stored on disk:                           0
  HFX_MEM_INFO| Number of sph. ERI's calculated on the fly:                    0
  HFX_MEM_INFO| Total memory consumption ERI's RAM [MiB]:                     15
  HFX_MEM_INFO| Whereof max-vals [MiB]:                                        6
  HFX_MEM_INFO| Total compression factor ERI's RAM:                         1.73
  HFX_MEM_INFO| Total memory consumption ERI's disk [MiB]:                     0
  HFX_MEM_INFO| Total compression factor ERI's disk:                        0.00
  HFX_MEM_INFO| Size of density/Fock matrix [MiB]:                             0
  HFX_MEM_INFO| Size of buffers [MiB]:                                         0
  HFX_MEM_INFO| Est. max. program size after HFX  [MiB]:                    1013

     1 OT CG       0.64E-01    4.7     0.51750931      -113.4889518225 -1.13E+02
     2 OT LS       0.32E-01    0.7                     -106.2838323599
     3 OT LS       0.20E-01    0.8                     -114.5503699286
     4 OT CG       0.16E-01    1.0     0.11103282      -115.3833564817 -1.89E+00
     5 OT LS       0.22E-01    0.7                     -115.5015342729
     6 OT LS       0.60E-01    0.8                     -115.5388909032
     7 OT CG       0.48E-01    1.0     0.07626653      -115.6443418890 -2.61E-01
     8 OT LS       0.68E-01    0.7                     -115.8149192404
     9 OT LS       0.15E+00    0.7                     -115.8644535196
    10 OT CG       0.12E+00    1.0     0.11583707      -115.9574530698 -3.13E-01
    11 OT LS       0.59E-01    0.7                     -115.0448136259
    12 OT LS       0.33E-01    0.7                     -116.0135046911
    13 OT CG       0.26E-01    1.0     0.06262250      -116.1183008706 -1.61E-01
    14 OT LS       0.37E-01    0.7                     -116.1740513909
    15 OT LS       0.53E-01    0.8                     -116.1860453036
    16 OT CG       0.42E-01    1.0     0.03144028      -116.1930458036 -7.47E-02
    17 OT LS       0.59E-01    0.7                     -116.2159845298
    18 OT LS       0.87E-01    0.7                     -116.2210360122
    19 OT CG       0.69E-01    1.0     0.04141557      -116.2242277711 -3.12E-02
    20 OT LS       0.97E-01    0.8                     -116.2495752535
    21 OT LS       0.49E-01    0.8                     -116.2251797427
    22 OT CG       0.39E-01    1.0     0.03476394      -116.2548740321 -3.06E-02
    23 OT LS       0.55E-01    0.7                     -116.2795526725
    24 OT LS       0.69E-01    0.7                     -116.2839840915
    25 OT CG       0.55E-01    1.0     0.01844686      -116.2853305045 -3.05E-02
    26 OT LS       0.78E-01    0.7                     -116.2912669495
    27 OT LS       0.49E-01    0.7                     -116.2892767920
    28 OT CG       0.39E-01    1.1     0.01856433      -116.2913775792 -6.05E-03
    29 OT LS       0.55E-01    0.8                     -116.2978525914
    30 OT LS       0.58E-01    0.7                     -116.2985930312
    31 OT CG       0.46E-01    1.0     0.01534860      -116.2986143200 -7.24E-03
    32 OT LS       0.65E-01    0.8                     -116.3050080778
    33 OT LS       0.12E+00    0.7                     -116.3067120423
    34 OT CG       0.96E-01    1.0     0.01453877      -116.3088888158 -1.03E-02
    35 OT LS       0.48E-01    0.8                     -116.3035574623
    36 OT LS       0.35E-01    0.7                     -116.3112441663
    37 OT CG       0.28E-01    1.0     0.01110349      -116.3115964898 -2.71E-03
    38 OT LS       0.40E-01    0.8                     -116.3134798141
    39 OT LS       0.55E-01    0.8                     -116.3138708167
    40 OT CG       0.44E-01    1.0     0.00569063      -116.3140705653 -2.47E-03
    41 OT LS       0.62E-01    0.7                     -116.3149297387
    42 OT LS       0.13E+00    0.7                     -116.3151725609
    43 OT CG       0.10E+00    1.0     0.00781190      -116.3155704618 -1.50E-03
    44 OT LS       0.51E-01    0.7                     -116.3146811209
    45 OT LS       0.43E-01    0.7                     -116.3164800579
    46 OT CG       0.34E-01    1.0     0.00677083      -116.3165164060 -9.46E-04
    47 OT LS       0.48E-01    0.8                     -116.3173491377
    48 OT LS       0.64E-01    0.8                     -116.3175126633
    49 OT CG       0.51E-01    1.0     0.00308971      -116.3175811206 -1.06E-03
    50 OT LS       0.72E-01    0.8                     -116.3178093501
    51 OT LS       0.72E-01    0.8                     -116.3178297869
    52 OT CG       0.57E-01    1.0     0.00341966      -116.3178297873 -2.49E-04
    53 OT LS       0.80E-01    0.7                     -116.3179741740
    54 OT LS       0.41E-01    0.8                     -116.3178399012
    55 OT CG       0.33E-01    1.0     0.00247815      -116.3180028975 -1.73E-04
    56 OT LS       0.46E-01    0.8                     -116.3181257312
    57 OT LS       0.10E+00    0.7                     -116.3181622037
    58 OT CG       0.84E-01    1.0     0.00207748      -116.3182368202 -2.34E-04
    59 OT LS       0.12E+00    0.7                     -116.3182625362
    60 OT LS       0.47E-01    0.7                     -116.3181398920
    61 OT CG       0.37E-01    1.0     0.00194889      -116.3183097110 -7.29E-05
    62 OT LS       0.52E-01    0.7                     -116.3183740257
    63 OT LS       0.50E-01    0.8                     -116.3183783033
    64 OT CG       0.40E-01    1.0     0.00121781      -116.3183784430 -6.87E-05
    65 OT LS       0.56E-01    0.7                     -116.3184148019
    66 OT LS       0.13E+00    0.7                     -116.3184256614
    67 OT CG       0.10E+00    1.0     0.00136476      -116.3184485078 -7.01E-05
    68 OT LS       0.52E-01    0.8                     -116.3184085511
    69 OT LS       0.41E-01    0.7                     -116.3184737215
    70 OT CG       0.32E-01    1.0     0.00111962      -116.3184759289 -2.74E-05
    71 OT LS       0.45E-01    0.7                     -116.3184952952
    72 OT LS       0.47E-01    0.7                     -116.3184973539
    73 OT CG       0.38E-01    1.0     0.00052400      -116.3184973828 -2.15E-05
    74 OT LS       0.53E-01    0.8                     -116.3185037397
    75 OT LS       0.12E+00    0.8                     -116.3185056320
    76 OT CG       0.98E-01    1.0     0.00068459      -116.3185095481 -1.22E-05
    77 OT LS       0.49E-01    0.8                     -116.3185082306
    78 OT LS       0.47E-01    0.8                     -116.3185175250
    79 OT CG       0.38E-01    1.1     0.00064842      -116.3185175376 -7.99E-06
    80 OT LS       0.53E-01    0.7                     -116.3185252984
    81 OT LS       0.58E-01    0.7                     -116.3185263271
    82 OT CG       0.46E-01    1.0     0.00029198      -116.3185264071 -8.87E-06
    83 OT LS       0.65E-01    0.7                     -116.3185282764
    84 OT LS       0.66E-01    0.7                     -116.3185284594
    85 OT CG       0.53E-01    1.0     0.00029960      -116.3185284601 -2.05E-06
    86 OT LS       0.74E-01    0.8                     -116.3185298131
    87 OT LS       0.44E-01    0.8                     -116.3185291752
    88 OT CG       0.35E-01    1.0     0.00024955      -116.3185298804 -1.42E-06
    89 OT LS       0.49E-01    0.7                     -116.3185312098
    90 OT LS       0.11E+00    0.8                     -116.3185316032
    91 OT CG       0.89E-01    1.1     0.00018867      -116.3185323953 -2.51E-06
    92 OT LS       0.12E+00    0.8                     -116.3185324741
    93 OT LS       0.46E-01    0.8                     -116.3185312617
    94 OT CG       0.37E-01    1.1     0.00017389      -116.3185329907 -5.95E-07
    95 OT LS       0.52E-01    0.8                     -116.3185334713
    96 OT LS       0.45E-01    0.7                     -116.3185334795
    97 OT CG       0.36E-01    1.0     0.00010523      -116.3185334889 -4.98E-07
    98 OT LS       0.51E-01    0.7                     -116.3185337469
    99 OT LS       0.16E+00    0.7                     -116.3185338311
   100 OT CG       0.13E+00    1.0     0.00011959      -116.3185341172 -6.28E-07
   101 OT LS       0.63E-01    0.7                     -116.3185333176
   102 OT LS       0.39E-01    0.7                     -116.3185342419
   103 OT CG       0.31E-01    1.0     0.00009869      -116.3185343181 -2.01E-07
   104 OT LS       0.43E-01    0.7                     -116.3185344735
   105 OT LS       0.53E-01    0.7                     -116.3185345002
   106 OT CG       0.43E-01    1.0     0.00005352      -116.3185345069 -1.89E-07
   107 OT LS       0.60E-01    0.7                     -116.3185345811
   108 OT LS       0.13E+00    0.8                     -116.3185346026
   109 OT CG       0.10E+00    1.0     0.00007386      -116.3185346418 -1.35E-07
   110 OT LS       0.52E-01    0.8                     -116.3185345347
   111 OT LS       0.41E-01    0.7                     -116.3185347178
   112 OT CG       0.33E-01    1.0     0.00005972      -116.3185347233 -8.15E-08
   113 OT LS       0.46E-01    0.7                     -116.3185347865
   114 OT LS       0.64E-01    0.8                     -116.3185347994
   115 OT CG       0.51E-01    1.1     0.00003138      -116.3185348056 -8.23E-08
   116 OT LS       0.71E-01    0.8                     -116.3185348275
   117 OT LS       0.64E-01    0.7                     -116.3185348281
   118 OT CG       0.51E-01    1.0     0.00003452      -116.3185348284 -2.29E-08
   119 OT LS       0.72E-01    0.7                     -116.3185348486
   120 OT LS       0.47E-01    0.7                     -116.3185348431
   121 OT CG       0.38E-01    1.0     0.00002781      -116.3185348487 -2.03E-08
   122 OT LS       0.53E-01    0.7                     -116.3185348665
   123 OT LS       0.12E+00    0.8                     -116.3185348717
   124 OT CG       0.96E-01    1.0     0.00002400      -116.3185348823 -3.35E-08
   125 OT LS       0.13E+00    0.8                     -116.3185348825
   126 OT LS       0.48E-01    0.8                     -116.3185348604
   127 OT CG       0.38E-01    1.0     0.00002121      -116.3185348923 -1.01E-08
   128 OT LS       0.54E-01    0.8                     -116.3185348984
   129 OT LS       0.37E-01    0.7                     -116.3185348972
   130 OT CG       0.30E-01    1.0     0.00001058      -116.3185348984 -6.11E-09
   131 OT LS       0.42E-01    0.8                     -116.3185349006
   132 OT LS       0.15E+00    0.7                     -116.3185349013
   133 OT CG       0.12E+00    1.0     0.00001384      -116.3185349045 -6.11E-09
   134 OT LS       0.60E-01    0.8                     -116.3185349044
   135 OT LS       0.60E-01    0.7                     -116.3185349087
   136 OT CG       0.48E-01    1.0     0.00001552      -116.3185349087 -4.14E-09
   137 OT LS       0.67E-01    0.7                     -116.3185349124
   138 OT LS       0.43E-01    0.7                     -116.3185349113
   139 OT CG       0.34E-01    1.0     0.00000506      -116.3185349124 -3.76E-09
   140 OT LS       0.48E-01    0.7                     -116.3185349129
   141 OT LS       0.69E-01    0.8                     -116.3185349130
   142 OT CG       0.55E-01    1.0     0.00000475      -116.3185349131 -6.45E-10
   143 OT LS       0.78E-01    0.7                     -116.3185349134
   144 OT LS       0.47E-01    0.7                     -116.3185349133
   145 OT CG       0.38E-01    1.0     0.00000482      -116.3185349135 -3.86E-10
   146 OT LS       0.53E-01    0.8                     -116.3185349140
   147 OT LS       0.12E+00    0.8                     -116.3185349141
   148 OT CG       0.95E-01    1.0     0.00000392      -116.3185349145 -1.01E-09
   149 OT LS       0.13E+00    0.7                     -116.3185349145
   150 OT LS       0.49E-01    0.8                     -116.3185349139
   151 OT CG       0.39E-01    1.0     0.00000320      -116.3185349147 -2.75E-10
   152 OT LS       0.55E-01    0.7                     -116.3185349149
   153 OT LS       0.33E-01    0.7                     -116.3185349148
   154 OT CG       0.26E-01    1.0     0.00000153      -116.3185349149 -1.22E-10
   155 OT LS       0.37E-01    0.7                     -116.3185349149
   156 OT LS       0.12E+00    0.8                     -116.3185349149
   157 OT CG       0.99E-01    1.0     0.00000172      -116.3185349150 -1.11E-10
   158 OT LS       0.14E+00    0.7                     -116.3185349150
   159 OT LS       0.75E-01    0.7                     -116.3185349150
   160 OT CG       0.60E-01    1.0     0.00000232      -116.3185349151 -8.57E-11
   161 OT LS       0.84E-01    0.8                     -116.3185349151
   162 OT LS       0.44E-01    0.8                     -116.3185349151
[...]
 x_to_yz                           2123 13.8    2.938    4.098   27.267   27.937
 tddfpt_apply_xc_analytic           140  9.0    0.105    0.125   26.983   27.442
 transfer_rs2pw                    1540  9.9    0.047    0.072   24.326   25.092
 integrate_four_center              446  9.6    9.550   19.329   23.713   23.854
 qs_vxc_create                      166  8.0    0.002    0.002   22.934   22.937
 xc_pw_divergence                   196 10.7    0.007    0.009   21.587   21.904
 integrate_v_rspace                 196  9.0    0.004    0.005   21.330   21.400
 mp_sync                           2452 11.5   11.668   21.116   11.668   21.116
 transfer_pw2rs                    1091 10.7    0.015    0.020   19.614   19.892
 potential_pw2rs                    196 10.0    0.044    0.056   18.927   19.081
 grid_collocate_task_list           308  8.8   17.300   18.883   17.300   18.883
 prepare_gapw_den                   307  8.5    0.005    0.006   18.622   18.791
 mp_waitany                       88650 12.2   15.802   17.732   15.802   17.732
 xc_rho_set_and_dset_create         167 10.0    0.224    0.269   14.197   16.360
 xc_calc_2nd_deriv_analytical       420 10.1    0.754    0.832   16.066   16.112
 put_rho0_on_grid                   307  9.5    0.775    1.143   15.745   15.914
 tddfpt_apply_hfx                     7  8.0    0.003    0.003   15.437   15.437
 mp_alltoall_d11v                 13974 11.8   11.026   15.018   11.026   15.018
 mp_alltoall_d45                    307 10.9   10.560   13.695   10.560   13.695
 transfer_rs2pw_250                 616 11.1    4.764    5.153   12.500   13.300
 tddft_hfx_matrix                   280  9.0    0.007    0.008   12.876   12.946
 transfer_pw2rs_250                 503 11.3    4.069    4.547   11.815   12.456
 xc_vxc_pw_create                    56  9.0    0.176    0.242   11.921   11.923
 integrate_vhg0_rspace              306  8.9    0.193    0.240   10.753   11.391
 xc_exc_calc                        110  9.0    0.268    0.380   11.011   11.012
 hfx_ks_matrix                      166  8.0    0.006    0.006   10.853   10.979
 mp_sum_d                          6566  9.6    6.146    7.205    6.146    7.205
 transfer_rs2pw_30                  308 10.8    2.695    2.810    6.348    6.460
 sum_up_and_integrate                56  8.0    0.001    0.001    6.034    6.054
 cp_dbcsr_sm_fm_multiply            889  8.5    0.018    0.022    5.747    5.873
 dbcsr_multiply_generic            3172 10.0    0.130    0.140    5.599    5.706
 mp_waitall_1                    709390 13.3    4.108    5.340    4.108    5.340
 qs_scf_new_mos                     166  5.0    0.001    0.001    5.185    5.194
 qs_scf_loop_do_ot                  166  6.0    0.001    0.001    5.185    5.194
 mp_sendrecv_dv                  117656 11.8    4.789    4.945    4.789    4.945
 ot_scf_mini                        166  7.0    0.002    0.004    4.878    4.887
 cp2k_distribution_to_z_slices      306  9.9    1.784    2.092    4.398    4.772
 dbcsr_complete_redistribute       3138 10.7    0.120    0.153    4.581    4.666
 init_scf_loop                        1  4.0    0.000    0.000    4.649    4.649
 pw_scatter_p                      2515 12.9    4.063    4.253    4.063    4.253
 transfer_pw2rs_30                  196 12.0    1.780    1.921    3.964    4.173
 transfer_rs2pw_90                  308 10.8    0.837    0.931    3.599    4.168
 mp_sum_dm                         6485  9.2    3.556    3.834    3.556    3.834
 gaVxcgb_GC                         196  9.7    0.071    3.480    0.071    3.480
 pw_gather_p                       2630 12.6    3.097    3.464    3.097    3.464
 pw_derive                         2427 11.6    3.143    3.365    3.143    3.365
 mp_isend_dm3                     10746 12.2    0.717    3.264    0.717    3.264
 rs_grid_zero                      1313 11.4    3.016    3.131    3.016    3.131
 copy_dbcsr_to_fm                  1092  9.7    0.014    0.016    3.079    3.106
 copy_fm_to_dbcsr                  2044  9.7    0.009    0.010    2.986    3.070
 multiply_cannon                   3172 11.0    0.322    0.333    2.836    3.050
 calculate_xc_2nd_deriv_atom        140  9.0    0.025    0.408    0.094    3.048
 fft_wrap_pw1pw2_90                 504 11.3    0.091    0.191    2.711    3.038
 transfer_pw2rs_90                  196 12.0    0.526    0.614    2.578    2.944
 calculate_rho_atom                 614  9.5    0.774    2.622    0.774    2.622
 xc_functional_eval                 779 10.9    0.001    0.005    0.818    2.618
 pbe_lda_eval                       779 11.9    0.817    2.615    0.817    2.615
 qs_ot_get_p                        167  8.0    0.001    0.001    2.480    2.486
 pw_copy                           3765 10.8    2.339    2.477    2.339    2.477
 rs_gather_matrices                 196 10.0    0.002    0.007    2.251    2.431
 multiply_cannon_loop              3172 12.0    0.493    0.553    2.154    2.371
 grid_integrate_task_list           196 10.0    0.148    2.295    0.148    2.295
 mp_sum_dv                        20166 10.5    2.166    2.233    2.166    2.233
 mp_alltoall_i11v                 10672 11.7    2.212    2.219    2.212    2.219
 pw_poisson_set                     307  9.9    0.008    0.010    2.138    2.180
 mp_isendrecv_dv                 245244 12.0    1.143    2.115    1.143    2.115
 integrate_four_center_main         446 10.6    0.069    0.569    0.254    2.069
 qs_ot_p2m_diag                     166  9.0    0.004    0.006    1.931    1.949
 integrate_four_center_bin        38646 11.6    0.184    1.901    0.184    1.901
 transfer_rs2pw_10                  308 10.8    0.697    0.753    1.833    1.881
 calculate_rho_atom_coeff           308  7.8    0.058    0.107    1.869    1.870
 pw_copy_to_array                  2630 12.6    1.283    1.760    1.283    1.760
 make_m2s                          6344 11.0    0.105    0.112    1.662    1.712
 mp_isend_dv                     222269 13.3    0.985    1.585    0.985    1.585
 ot_mini                            166  8.0    0.001    0.001    1.528    1.538
 pw_integral_ab_c1d_c1d_gs          306  9.9    1.119    1.132    1.414    1.489
 cp_dbcsr_sm_fm_multiply_core       889  9.5    0.002    0.002    1.378    1.443
 dbcsr_desymmetrize_deep           1093 10.7    0.029    0.030    1.414    1.438
 qs_ot_get_derivative                56  9.0    0.000    0.001    1.407    1.409
 make_images                       6344 12.0    0.300    0.306    1.338    1.377
 calculate_vxc_atom                 166  8.0    0.051    0.272    1.375    1.376
 cp_dbcsr_syevd                     166 10.0    0.009    0.010    1.333    1.339
 transfer_pw2rs_10                  196 12.0    0.461    0.537    1.242    1.318
 cp_dbcsr_plus_fm_fm_t              141  9.0    0.002    0.002    1.262    1.281
 tddfpt_orthonormalize_psi1_psi       8  6.9    0.015    0.016    1.205    1.205
 pw_axpy                           2658 10.2    1.045    1.146    1.045    1.146
 mp_irecv_dm3                     10746 12.2    0.603    1.109    0.603    1.109
 qs_ot_get_derivative_diag           55 10.0    0.001    0.001    1.088    1.090
 cp_fm_syevd                        215 10.2    0.001    0.002    1.052    1.055
 tddfpt_apply_energy_diff             7  8.0    0.001    0.001    1.042    1.043
 Vh_1c_gg_integrals                 306  8.9    0.025    0.427    0.936    1.029
 mp_max_i                           774  5.3    0.866    1.029    0.866    1.029
 fft_wrap_pw1pw2_30                 504 11.3    0.016    0.018    0.948    1.007
 pw_zero                           2712 10.5    0.902    1.002    0.902    1.002
 pw_copy_from_array                2515 12.9    0.846    0.996    0.846    0.996
 mp_alltoall_z11v                  1008 14.3    0.887    0.947    0.887    0.947
 multiply_cannon_metrocomm3       76128 13.0    0.229    0.239    0.593    0.890
 calc_screening_functions             1 10.0    0.546    0.642    0.745    0.842
 mp_alltoall_i22                   4286 11.7    0.735    0.836    0.735    0.836
 cp_fm_redistribute_end             215 11.2    0.478    0.823    0.487    0.834
 hybrid_alltoall_any               7437 13.6    0.065    0.072    0.756    0.818
 tddfpt_compute_residual_vects        6  7.0    0.001    0.001    0.778    0.778
 mp_sum_l                         14061 10.7    0.679    0.739    0.679    0.739
 tddfpt_print_nto_analysis            1  6.0    0.002    0.003    0.732    0.732
 integrate_four_center_dist_KS      446 10.6    0.127    0.153    0.680    0.689
 cp_fm_syevd_base                   215 11.2    0.341    0.686    0.341    0.686
 offload_free_buffer                314  9.7    0.073    0.683    0.073    0.683
 make_images_sizes                 6344 13.0    0.007    0.007    0.661    0.677
 update_ks_atom                     306  8.5    0.040    0.068    0.613    0.674
 mp_alltoall_i44                   6344 14.0    0.654    0.670    0.654    0.670
 pw_poisson_rebuild                 306  9.9    0.000    0.000    0.643    0.661
 ps_wavelet_create                    1 10.0    0.000    0.000    0.643    0.661
 RS_z_slice_distribution              1 11.0    0.521    0.616    0.643    0.661
 integrate_four_center_getP         446 10.6    0.127    0.148    0.636    0.656
 mp_bcast_dm                       4453  9.6    0.579    0.621    0.579    0.621
 qs_ot_get_orbitals                 166  8.0    0.001    0.001    0.599    0.602
 xz_to_yz                           616 12.8    0.038    0.049    0.506    0.515
 scale_and_distribute               612 10.9    0.418    0.511    0.418    0.511
 yz_to_xz                           392 14.0    0.037    0.043    0.456    0.508
 multiply_cannon_metrocomm4       72956 13.0    0.221    0.251    0.431    0.499
 fft_wrap_pw1pw2_10                 504 11.3    0.005    0.006    0.472    0.480
 parallel_gemm_fm                  1179  8.4    0.001    0.002    0.460    0.470
 parallel_gemm_fm_gemm             1179  9.4    0.002    0.002    0.459    0.468
 cp_fm_gemm                        1179 10.4    0.457    0.467    0.457    0.467
 multiply_cannon_metrocomm2       66612 13.0    0.201    0.218    0.371    0.423
 mp_rank_compare                   5145 13.7    0.347    0.363    0.347    0.363
 prepare_dr1dr                      420 11.1    0.226    0.359    0.226    0.359
 powell_optimize                 137573 11.0    0.344    0.356    0.344    0.356
 cp_fm_geeig                         20  7.0    0.001    0.001    0.322    0.323
 calculate_dm_sparse                167  7.0    0.000    0.001    0.310    0.314
 qs_energies_init_hamiltonians        1  3.0    0.000    0.000    0.312    0.312
 build_core_hamiltonian_matrix        1  4.0    0.000    0.000    0.302    0.302
 overlap_condnum                      1  5.0    0.000    0.000    0.300    0.301
 calc_pair_dist_radii                 1 10.0    0.118    0.133    0.263    0.281
 init_scf_run                         1  3.0    0.000    0.000    0.279    0.279
 scf_env_initial_rho_setup            1  4.0    0.000    0.000    0.279    0.279
 dbcsr_finalize                    9109 11.4    0.043    0.059    0.198    0.274
 cp_fm_trace_a1b1t1_aa            10080  8.0    0.048    0.053    0.251    0.253
 arnoldi_normal_ev                  168 10.0    0.003    0.003    0.246    0.253
 dbcsr_create_new                 58426 12.2    0.179    0.190    0.237    0.252
 arnoldi_extremal                   167  9.0    0.003    0.004    0.245    0.252
 rs_scatter_matrices                308  8.8    0.003    0.007    0.239    0.245
 tddfpt_construct_ground_state_       1  6.0    0.000    0.000    0.243    0.244
 calculate_rho0_atom                614  9.5    0.230    0.235    0.230    0.235
 mp_cart_sub                       2188 11.7    0.234    0.235    0.234    0.235
 make_images_data                  6344 13.0    0.071    0.090    0.156    0.232
 cp_fm_redistribute_start           215 11.2    0.177    0.180    0.222    0.227
 mp_irecv_dv                     220705 13.3    0.170    0.224    0.170    0.224
 dbcsr_make_images_dense           4112 11.9    0.058    0.061    0.157    0.221
 mp_allgather_i34                  3172 12.0    0.197    0.216    0.197    0.216
 arnoldi_conjugate_gradient           5  6.0    0.005    0.007    0.206    0.206
 multiply_cannon_metrocomm1       76128 13.0    0.084    0.088    0.155    0.180
 build_subspace                     168 11.0    0.008    0.009    0.178    0.179
 mp_cart_create                    1709 10.9    0.155    0.166    0.157    0.169
 dbcsr_destroy                    55966 11.4    0.073    0.078    0.106    0.168
 dbcsr_make_dense_low              9831 12.8    0.049    0.051    0.075    0.163
 qs_init_subsys                       1  2.0    0.004    0.004    0.160    0.160
 multiply_cannon_multrec          76128 13.0    0.099    0.146    0.112    0.160
 dbcsr_merge_all                   7920 12.3    0.088    0.116    0.110    0.156
 dbcsr_sym_matrix_vector_mult       848  7.6    0.013    0.017    0.119    0.155
 qs_env_setup                         1  3.0    0.000    0.000    0.152    0.152
 qs_env_rebuild_pw_env                2  3.5    0.000    0.000    0.151    0.152
 pw_env_rebuild                       1  5.0    0.001    0.001    0.151    0.151
 dbcsr_matrix_vector_mult          1770 12.0    0.016    0.017    0.086    0.145
 dbcsr_data_release              286577 13.1    0.083    0.144    0.083    0.144
 pw_grid_setup                        4  6.0    0.000    0.000    0.140    0.141
 pw_grid_setup_internal               4  7.0    0.004    0.005    0.140    0.141
 mp_isend_iv                     151863 14.0    0.120    0.141    0.120    0.141
 create_kernel_env                    1  6.0    0.000    0.000    0.113    0.136
 xc_prep_2nd_deriv                    1  7.0    0.000    0.000    0.113    0.136
 cube_transpose_2                   616 12.8    0.012    0.014    0.124    0.136
 xc_2nd_deriv_of_r                  280 10.0    0.001    0.023    0.005    0.129
 dbcsr_special_finalize           12688 13.0    0.033    0.034    0.104    0.125
 dbcsr_iterator_start             59395 12.1    0.061    0.101    0.075    0.124
 integrate_four_center_load         446 10.6    0.001    0.002    0.114    0.123
 create_qs_kind_set                   1  2.0    0.000    0.000    0.102    0.122
 hfx_load_balance                     1 11.0    0.000    0.000    0.113    0.122
 read_qs_kind                         2  3.0    0.034    0.060    0.102    0.122
 dbcsr_new_transposed              1335 10.8    0.008    0.008    0.108    0.113
 ot_new_cg_direction                 56  9.0    0.001    0.001    0.111    0.111
 hfx_load_balance_range               1 12.0    0.000    0.000    0.099    0.109
 pw_scale                           504  9.5    0.091    0.106    0.091    0.106
 apply_preconditioner_dbcsr          57 10.0    0.000    0.000    0.098    0.102
 apply_single                        57 11.0    0.000    0.000    0.098    0.102
 dbcsr_col_vec_to_rep_row          2618 11.6    0.018    0.021    0.054    0.102
 tddfpt_compute_ritz_vects            7  7.0    0.004    0.005    0.100    0.100
 vxc_of_r_new                       332  9.0    0.000    0.008    0.003    0.095
 parser_read_line                  5415  4.0    0.002    0.004    0.067    0.090
 dbcsr_redistribute                  55 12.0    0.002    0.002    0.086    0.090
 make_dense_data                   9831 13.8    0.005    0.037    0.006    0.089
 dbcsr_add_d                       1499  8.1    0.002    0.002    0.013    0.089
 rs_grid_create                     312  9.8    0.001    0.002    0.019    0.089
 parser_read_line_low                12  5.0    0.010    0.027    0.065    0.089
 offload_create_buffer              314 10.8    0.018    0.088    0.018    0.088
 dbcsr_add_anytype                 1499  9.1    0.002    0.012    0.011    0.087
 dbcsr_data_new                  170630 12.9    0.072    0.085    0.072    0.085
 dbcsr_iterator_stop              59395 12.1    0.046    0.069    0.057    0.083
 tddfpt_orthogonalize_psi1_psi0       8  6.9    0.000    0.000    0.076    0.081
 broadcast_input_information         12  6.0    0.017    0.021    0.056    0.080
 cube_transpose_1                   392 14.0    0.007    0.008    0.070    0.078
 mp_sum_b                          4113 10.9    0.076    0.078    0.076    0.078
 pw_grid_sort                         4  8.0    0.049    0.050    0.075    0.078
 mp_irecv_iv                     151081 14.0    0.067    0.076    0.067    0.076
 dbcsr_work_create                21756 12.4    0.043    0.048    0.062    0.073
 copy_fm_to_dbcsr_bc               2044 10.7    0.022    0.025    0.062    0.072
 mp_cart_rank                    235424 10.4    0.063    0.070    0.063    0.070
 dbcsr_copy                        7881  9.5    0.026    0.030    0.056    0.065
 setup_buffer_matrices             6344 12.0    0.019    0.020    0.059    0.062
 dbcsr_work_destroy_all           21756 13.4    0.039    0.045    0.053    0.062
 dbcsr_rep_row_to_rep_col_vec       848  8.6    0.004    0.006    0.028    0.061
 Gram_Schmidt_ortho                1689 11.9    0.002    0.003    0.046    0.060
 dbcsr_make_dense                  1607 11.1    0.007    0.007    0.035    0.060
 mp_bcast_dv                       2833 12.6    0.023    0.056    0.023    0.056
 scf_post_calculation_gpw             1  3.0    0.000    0.000    0.051    0.051
 write_available_results              1  4.0    0.000    0.000    0.051    0.051
 write_mo_free_results                1  5.0    0.003    0.005    0.051    0.051
 prepare_preconditioner               1  5.0    0.000    0.000    0.050    0.050
 make_preconditioner                  1  6.0    0.000    0.000    0.050    0.050
 arnoldi_init                       168 11.0    0.002    0.002    0.043    0.049
 cp_fm_cholesky_decompose            23  7.9    0.047    0.047    0.047    0.047
 dbcsr_mm_multrec_init             3172 12.0    0.006    0.007    0.043    0.046
 quick_finalize                    9141 13.9    0.021    0.026    0.034    0.046
 dbcsr_make_undense                1607 11.1    0.010    0.020    0.020    0.044
 mp_sum_iv                         1124  9.7    0.036    0.044    0.036    0.044
 make_full_single_inverse             1  7.0    0.000    0.000    0.043    0.043
 write_mo_set_to_restart            166  5.0    0.002    0.011    0.039    0.041
 dbcsr_mm_csr_init                 3172 13.0    0.030    0.032    0.037    0.041
 dbcsr_make_untransposed_blocks    4317 11.0    0.024    0.025    0.039    0.040
 mp_maxloc_dv                      1343  1.0    0.035    0.039    0.035    0.039
 cp_fm_triangular_invert             20  8.0    0.038    0.038    0.038    0.038
 calculate_first_density_matrix       1  5.0    0.000    0.001    0.038    0.038
 dbcsr_merge_single_wm             4695 13.8    0.023    0.027    0.027    0.038
 dbcsr_dot                          557  8.7    0.003    0.004    0.033    0.037
 dbcsr_make_index_exist           58426 13.2    0.033    0.035    0.033    0.035
 mp_bcast_iv_src                     12  7.0    0.003    0.035    0.003    0.035
 pw_pool_create_pw                 9376 10.3    0.021    0.025    0.028    0.034
 dbcsr_switch_data_area           24989 13.7    0.023    0.024    0.031    0.032
 make_images_pack                  6344 13.0    0.013    0.013    0.028    0.031
 -------------------------------------------------------------------------------

 The number of warnings for this run is : 2
 
 -------------------------------------------------------------------------------
  **** **** ******  **  PROGRAM ENDED AT                 2025-04-20 15:08:06.981
 ***** ** ***  *** **   PROGRAM RAN ON                              i05r09c04s09
 **    ****   ******    PROGRAM RAN BY                                   di38fab
 ***** **    ** ** **   PROGRAM PROCESS ID                               3440626
  **** **  *******  **  PROGRAM STOPPED IN /hppfs/scratch/04/di38fab/05_MOL/W4-1
                                           1+ALK/allene/SZV/TDDFT/1e-4
