 DBCSR| CPU Multiplication driver                                           BLAS (U)
 DBCSR| Multrec recursion limit                                              512 (U)
 DBCSR| Multiplication stack size                                           1000 (D)
 DBCSR| Maximum elements for images                                    UNLIMITED (U)
 DBCSR| Multiplicative factor virtual images                                   1 (U)
 DBCSR| Use multiplication densification                                       T (D)
 DBCSR| Multiplication size stacks                                             3 (U)
 DBCSR| Use memory pool for CPU allocation                                     F (U)
 DBCSR| Number of 3D layers                                               SINGLE (U)
 DBCSR| Use MPI memory allocation                                              F (U)
 DBCSR| Use RMA algorithm                                                      F (U)
 DBCSR| Use Communication thread                                               T (U)
 DBCSR| Communication thread load                                             75 (D)
 DBCSR| MPI: My process id                                                     0
 DBCSR| MPI: Number of processes                                              96
 DBCSR| OMP: Current number of threads                                         4
 DBCSR| OMP: Max number of threads                                             4
 DBCSR| Split modifier for TAS multiplication algorithm                  1.0E+00 (U)


  **** **** ******  **  PROGRAM STARTED AT               2025-04-12 03:47:56.979
 ***** ** ***  *** **   PROGRAM STARTED ON                          i04r02c02s08
 **    ****   ******    PROGRAM STARTED BY                               di38fab
 ***** **    ** ** **   PROGRAM PROCESS ID                               2963492
  **** **  *******  **  PROGRAM STARTED IN /hppfs/scratch/04/di38fab/05_MOL/W4-1
                                           1+ALK/na2_h2/aug-cc-pVQZ/TDDFT

 CP2K| version string:                 CP2K version 2025.1 (Development Version)
 CP2K| source code revision number:                             unknown revision
 CP2K| cp2kflags: omp libint fftw3 libxc parallel scalapack max_contr=4         
 CP2K| is freely available from                            https://www.cp2k.org/
 CP2K| Program compiled at                         Thu Apr 10 16:20:23 CEST 2025
 CP2K| Program compiled on                                               login01
 CP2K| Program compiled for                                        Supermuc-foss
 CP2K| Data directory path                  /hppfs/work/pn36zo/di38fab/cp2k/data
 CP2K| Input file name                                                    GW.inp

 GLOBAL| Force Environment number                                              1
 GLOBAL| Basis set file name            /hppfs/scratch/04/di38fab/04_TMD/BASIS_A
 GLOBAL| Potential file name            /hppfs/work/pn36zo/di38fab/cp2k/data/ALL
 GLOBAL| MM Potential file name                                     MM_POTENTIAL
 GLOBAL| Coordinate file name                                      __STD_INPUT__
 GLOBAL| Method name                                                        CP2K
 GLOBAL| Project name                                                       MoS2
 GLOBAL| Run type                                                         ENERGY
 GLOBAL| FFT library                                                       FFTW3
 GLOBAL| Diagonalization library                                       ScaLAPACK
 GLOBAL| DGEMM library                                                      BLAS
 GLOBAL| Orthonormality check for eigenvectors                          DISABLED
 GLOBAL| Matrix multiplication library                                 ScaLAPACK
 GLOBAL| All-to-all communication in single precision                          F
 GLOBAL| FFTs using library dependent lengths                                  F
 GLOBAL| Grid backend                                                       AUTO
 GLOBAL| Global print level                                               MEDIUM
 GLOBAL| MPI I/O enabled                                                       T
 GLOBAL| Total number of message passing processes                            96
 GLOBAL| Number of threads for this process                                    4
 GLOBAL| This output is from process                                           0
 GLOBAL| OpenMP stack size per thread (OMP_STACKSIZE)                    default
 GLOBAL| CPU model name             Intel(R) Xeon(R) Platinum 8174 CPU @ 3.10GHz

 MEMORY| system memory details [Kb]
 MEMORY|                        rank 0           min           max       average
 MEMORY| MemTotal             98436664      98433628      98436708      98436295
 MEMORY| MemFree              83592144      83592144      84541804      84058673
 MEMORY| Buffers                     0             0             0             0
 MEMORY| Cached                2424856       2389360       2424856       2409019
 MEMORY| Slab                  1228488       1160112       1247060       1219122
 MEMORY| SReclaimable           271732        260896        277616        270623
 MEMORY| MemLikelyFree        86288732      86288732      87222072      86738315


 *** Fundamental physical constants (SI units) ***

 *** Literature: B. J. Mohr and B. N. Taylor,
 ***             CODATA recommended values of the fundamental physical
 ***             constants: 2006, Web Version 5.1
 ***             http://physics.nist.gov/constants

 Speed of light in vacuum [m/s]                             2.99792458000000E+08
 Magnetic constant or permeability of vacuum [N/A**2]       1.25663706143592E-06
 Electric constant or permittivity of vacuum [F/m]          8.85418781762039E-12
 Planck constant (h) [J*s]                                  6.62606896000000E-34
 Planck constant (h-bar) [J*s]                              1.05457162825177E-34
 Elementary charge [C]                                      1.60217648700000E-19
 Electron mass [kg]                                         9.10938215000000E-31
 Electron g factor [ ]                                     -2.00231930436220E+00
 Proton mass [kg]                                           1.67262163700000E-27
 Fine-structure constant                                    7.29735253760000E-03
 Rydberg constant [1/m]                                     1.09737315685270E+07
 Avogadro constant [1/mol]                                  6.02214179000000E+23
 Boltzmann constant [J/K]                                   1.38065040000000E-23
 Atomic mass unit [kg]                                      1.66053878200000E-27
 Bohr radius [m]                                            5.29177208590000E-11

 *** Conversion factors ***

 [u] -> [a.u.]                                              1.82288848426455E+03
 [Angstrom] -> [Bohr] = [a.u.]                              1.88972613288564E+00
 [a.u.] = [Bohr] -> [Angstrom]                              5.29177208590000E-01
 [a.u.] -> [s]                                              2.41888432650478E-17
 [a.u.] -> [fs]                                             2.41888432650478E-02
 [a.u.] -> [J]                                              4.35974393937059E-18
 [a.u.] -> [N]                                              8.23872205491840E-08
 [a.u.] -> [K]                                              3.15774647902944E+05
 [a.u.] -> [kJ/mol]                                         2.62549961709828E+03
 [a.u.] -> [kcal/mol]                                       6.27509468713739E+02
 [a.u.] -> [Pa]                                             2.94210107994716E+13
 [a.u.] -> [bar]                                            2.94210107994716E+08
 [a.u.] -> [atm]                                            2.90362800883016E+08
 [a.u.] -> [eV]                                             2.72113838565563E+01
 [a.u.] -> [Hz]                                             6.57968392072181E+15
 [a.u.] -> [1/cm] (wave numbers)                            2.19474631370540E+05
 [a.u./Bohr**2] -> [1/cm]                                   5.14048714338585E+03
 

 CELL_TOP| Volume [angstrom^3]:                                     27000.000000
 CELL_TOP| Vector a [angstrom    30.000     0.000     0.000   |a| =    30.000000
 CELL_TOP| Vector b [angstrom     0.000    30.000     0.000   |b| =    30.000000
 CELL_TOP| Vector c [angstrom     0.000     0.000    30.000   |c| =    30.000000
 CELL_TOP| Angle (b,c), alpha [degree]:                                90.000000
 CELL_TOP| Angle (a,c), beta  [degree]:                                90.000000
 CELL_TOP| Angle (a,b), gamma [degree]:                                90.000000
 CELL_TOP| Numerically orthorhombic:                                         YES
 CELL_TOP| Periodicity                                                      NONE

 GENERATE|  Preliminary Number of Bonds generated:                             0
 GENERATE|  Achieved consistency in connectivity generation.

 CELL| Volume [angstrom^3]:                                         27000.000000
 CELL| Vector a [angstrom]:      30.000     0.000     0.000   |a| =    30.000000
 CELL| Vector b [angstrom]:       0.000    30.000     0.000   |b| =    30.000000
 CELL| Vector c [angstrom]:       0.000     0.000    30.000   |c| =    30.000000
 CELL| Angle (b,c), alpha [degree]:                                    90.000000
 CELL| Angle (a,c), beta  [degree]:                                    90.000000
 CELL| Angle (a,b), gamma [degree]:                                    90.000000
 CELL| Numerically orthorhombic:                                             YES
 CELL| Periodicity                                                          NONE

 CELL_REF| Volume [angstrom^3]:                                     27000.000000
 CELL_REF| Vector a [angstrom    30.000     0.000     0.000   |a| =    30.000000
 CELL_REF| Vector b [angstrom     0.000    30.000     0.000   |b| =    30.000000
 CELL_REF| Vector c [angstrom     0.000     0.000    30.000   |c| =    30.000000
 CELL_REF| Angle (b,c), alpha [degree]:                                90.000000
 CELL_REF| Angle (a,c), beta  [degree]:                                90.000000
 CELL_REF| Angle (a,b), gamma [degree]:                                90.000000
 CELL_REF| Numerically orthorhombic:                                         YES
 CELL_REF| Periodicity                                                      NONE

 *******************************************************************************
 *******************************************************************************
 **                                                                           **
 **     #####                         ##              ##                      **
 **    ##   ##            ##          ##              ##                      **
 **   ##     ##                       ##            ######                    **
 **   ##     ##  ##   ##  ##   #####  ##  ##   ####   ##    #####    #####    **
 **   ##     ##  ##   ##  ##  ##      ## ##   ##      ##   ##   ##  ##   ##   **
 **   ##  ## ##  ##   ##  ##  ##      ####     ###    ##   ######   ######    **
 **    ##  ###   ##   ##  ##  ##      ## ##      ##   ##   ##       ##        **
 **     #######   #####   ##   #####  ##  ##  ####    ##    #####   ##        **
 **           ##                                                    ##        **
 **                                                                           **
 **                                                ... make the atoms dance   **
 **                                                                           **
 **            Copyright (C) by CP2K developers group (2000-2025)             **
 **                      J. Chem. Phys. 152, 194103 (2020)                    **
 **                                                                           **
 *******************************************************************************

 DFT| Spin restricted Kohn-Sham (RKS) calculation                            RKS
 DFT| Multiplicity                                                             1
 DFT| Number of spin states                                                    1
 DFT| Charge                                                                   0
 DFT| Self-interaction correction (SIC)                                       NO
 DFT| Cutoffs: density                                              1.000000E-10
 DFT|          gradient                                             1.000000E-10
 DFT|          tau                                                  1.000000E-10
 DFT|          cutoff_smoothing_range                               0.000000E+00
 DFT| XC density smoothing                                                  NONE
 DFT| XC derivatives                                                          PW

 FUNCTIONAL| PBE:
 FUNCTIONAL| J.P.Perdew, K.Burke, M.Ernzerhof, Phys. Rev. Letter, vol. 77, n 18,
 FUNCTIONAL|  pp. 3865-3868, (1996)sx=0.750sc=1.000{spin unpolarized}           


 QS| Method:                                                                GAPW
 QS| Density plane wave grid type                        NON-SPHERICAL FULLSPACE
 QS| Number of grid levels:                                                    4
 QS| Density cutoff [a.u.]:                                                250.0
 QS| Multi grid cutoff [a.u.]: 1) grid level                               250.0
 QS|                           2) grid level                                83.3
 QS|                           3) grid level                                27.8
 QS|                           4) grid level                                 9.3
 QS| Grid level progression factor:                                          3.0
 QS| Relative density cutoff [a.u.]:                                        50.0
 QS| Interaction thresholds: eps_pgf_orb:                                1.0E-12
 QS|                         eps_filter_matrix:                          0.0E+00
 QS|                         eps_core_charge:                            1.0E-14
 QS|                         eps_rho_gspace:                             1.0E-12
 QS|                         eps_rho_rspace:                             1.0E-12
 QS|                         eps_gvg_rspace:                             1.0E-06
 QS|                         eps_ppl:                                    1.0E-02
 QS|                         eps_ppnl:                                   1.0E-08
 QS| GAPW|      One center basis from orbital basis primitives
 QS| GAPW|                   eps_fit:                                    1.0E-04
 QS| GAPW|                   eps_iso:                                    1.0E-12
 QS| GAPW|                   eps_svd:                                    1.0E-08
 QS| GAPW|                   eps_cpc:                                    1.0E-12
 QS| GAPW|   atom-r-grid: quadrature:                                     GC_LOG
 QS| GAPW|      atom-s-grid:  max l :                                          8
 QS| GAPW|      max_l_rho0 :                                                   2


 ATOMIC KIND INFORMATION

  1. Atomic kind: na                                    Number of atoms:       2

     Orbital Basis Set                                               aug-cc-pVQZ

       Number of orbital shell sets:                                          10
       Number of orbital shells:                                              22
       Number of primitive Cartesian functions:                               42
       Number of Cartesian basis functions:                                  109
       Number of spherical basis functions:                                   84
       Norm type:                                                              2

       Normalised Cartesian orbitals:

                        Set   Shell   Orbital            Exponent    Coefficient

                          1       1    1s                0.005000       0.013401

                          2       1    1px               0.007200       0.002990
                          2       1    1py               0.007200       0.002990
                          2       1    1pz               0.007200       0.002990

                          3       1    1px             413.400000       2.413141
                                                        97.980000       3.259364
                                                        31.370000       3.782819
                                                        11.620000       3.624427
                                                         4.671000       2.558662
                                                         1.918000       1.217436
                                                         0.777500       0.348244
                                                         0.301300       0.040361
                                                         0.227500      -0.003295
                                                         0.075270       0.000320
                                                         0.031260      -0.000032
                                                         0.013420       0.000004
                          3       1    1py             413.400000       2.413141
                                                        97.980000       3.259364
                                                        31.370000       3.782819
                                                        11.620000       3.624427
                                                         4.671000       2.558662
                                                         1.918000       1.217436
                                                         0.777500       0.348244
                                                         0.301300       0.040361
                                                         0.227500      -0.003295
                                                         0.075270       0.000320
                                                         0.031260      -0.000032
                                                         0.013420       0.000004
                          3       1    1pz             413.400000       2.413141
                                                        97.980000       3.259364
                                                        31.370000       3.782819
                                                        11.620000       3.624427
                                                         4.671000       2.558662
                                                         1.918000       1.217436
                                                         0.777500       0.348244
                                                         0.301300       0.040361
                                                         0.227500      -0.003295
                                                         0.075270       0.000320
                                                         0.031260      -0.000032
                                                         0.013420       0.000004

                          3       2    2px             413.400000       0.000000
                                                        97.980000       0.000000
                                                        31.370000       0.000000
                                                        11.620000       0.000000
                                                         4.671000       0.000000
                                                         1.918000       0.000000
                                                         0.777500       0.000000
                                                         0.301300       0.000000
                                                         0.227500       0.000000
                                                         0.075270       0.056198
                                                         0.031260       0.000000
                                                         0.013420       0.000000
                          3       2    2py             413.400000       0.000000
                                                        97.980000       0.000000
                                                        31.370000       0.000000
                                                        11.620000       0.000000
                                                         4.671000       0.000000
                                                         1.918000       0.000000
                                                         0.777500       0.000000
                                                         0.301300       0.000000
                                                         0.227500       0.000000
                                                         0.075270       0.056198
                                                         0.031260       0.000000
                                                         0.013420       0.000000
                          3       2    2pz             413.400000       0.000000
                                                        97.980000       0.000000
                                                        31.370000       0.000000
                                                        11.620000       0.000000
                                                         4.671000       0.000000
                                                         1.918000       0.000000
                                                         0.777500       0.000000
                                                         0.301300       0.000000
                                                         0.227500       0.000000
                                                         0.075270       0.056198
                                                         0.031260       0.000000
                                                         0.013420       0.000000

                          3       3    3px             413.400000       0.000000
                                                        97.980000       0.000000
                                                        31.370000       0.000000
                                                        11.620000       0.000000
                                                         4.671000       0.000000
                                                         1.918000       0.000000
                                                         0.777500       0.000000
                                                         0.301300       0.000000
                                                         0.227500       0.000000
                                                         0.075270       0.000000
                                                         0.031260       0.018736
                                                         0.013420       0.000000
                          3       3    3py             413.400000       0.000000
                                                        97.980000       0.000000
                                                        31.370000       0.000000
                                                        11.620000       0.000000
                                                         4.671000       0.000000
                                                         1.918000       0.000000
                                                         0.777500       0.000000
                                                         0.301300       0.000000
                                                         0.227500       0.000000
                                                         0.075270       0.000000
                                                         0.031260       0.018736
                                                         0.013420       0.000000
                          3       3    3pz             413.400000       0.000000
                                                        97.980000       0.000000
                                                        31.370000       0.000000
                                                        11.620000       0.000000
                                                         4.671000       0.000000
                                                         1.918000       0.000000
                                                         0.777500       0.000000
                                                         0.301300       0.000000
                                                         0.227500       0.000000
                                                         0.075270       0.000000
                                                         0.031260       0.018736
                                                         0.013420       0.000000

                          3       4    4px             413.400000      -0.239599
                                                        97.980000      -0.324868
                                                        31.370000      -0.378118
                                                        11.620000      -0.367403
                                                         4.671000      -0.261519
                                                         1.918000      -0.126363
                                                         0.777500      -0.039138
                                                         0.301300      -0.013785
                                                         0.227500       0.011601
                                                         0.075270       0.014622
                                                         0.031260       0.010299
                                                         0.013420       0.001835
                          3       4    4py             413.400000      -0.239599
                                                        97.980000      -0.324868
                                                        31.370000      -0.378118
                                                        11.620000      -0.367403
                                                         4.671000      -0.261519
                                                         1.918000      -0.126363
                                                         0.777500      -0.039138
                                                         0.301300      -0.013785
                                                         0.227500       0.011601
                                                         0.075270       0.014622
                                                         0.031260       0.010299
                                                         0.013420       0.001835
                          3       4    4pz             413.400000      -0.239599
                                                        97.980000      -0.324868
                                                        31.370000      -0.378118
                                                        11.620000      -0.367403
                                                         4.671000      -0.261519
                                                         1.918000      -0.126363
                                                         0.777500      -0.039138
                                                         0.301300      -0.013785
                                                         0.227500       0.011601
                                                         0.075270       0.014622
                                                         0.031260       0.010299
                                                         0.013420       0.001835

                          3       5    5px             413.400000       0.000000
                                                        97.980000       0.000000
                                                        31.370000       0.000000
                                                        11.620000       0.000000
                                                         4.671000       0.000000
                                                         1.918000       0.000000
                                                         0.777500       0.000000
                                                         0.301300       0.000000
                                                         0.227500       0.000000
                                                         0.075270       0.000000
                                                         0.031260       0.000000
                                                         0.013420       0.006511
                          3       5    5py             413.400000       0.000000
                                                        97.980000       0.000000
                                                        31.370000       0.000000
                                                        11.620000       0.000000
                                                         4.671000       0.000000
                                                         1.918000       0.000000
                                                         0.777500       0.000000
                                                         0.301300       0.000000
                                                         0.227500       0.000000
                                                         0.075270       0.000000
                                                         0.031260       0.000000
                                                         0.013420       0.006511
                          3       5    5pz             413.400000       0.000000
                                                        97.980000       0.000000
                                                        31.370000       0.000000
                                                        11.620000       0.000000
                                                         4.671000       0.000000
                                                         1.918000       0.000000
                                                         0.777500       0.000000
                                                         0.301300       0.000000
                                                         0.227500       0.000000
                                                         0.075270       0.000000
                                                         0.031260       0.000000
                                                         0.013420       0.006511

                          4       1    1s          1224000.000000       0.125599
                                                    183200.000000       0.235022
                                                     41700.000000       0.407281
                                                     11810.000000       0.667490
                                                      3853.000000       1.046511
                                                      1391.000000       1.575129
                                                       542.500000       2.261923
                                                       224.900000       3.030036
                                                        97.930000       3.614183
                                                        44.310000       3.533827
                                                        20.650000       2.394504
                                                         9.729000       0.812173
                                                         4.228000       0.068928
                                                         1.969000      -0.000767
                                                         0.889000       0.000952
                                                         0.396400      -0.000064
                                                         0.069930       0.000009
                                                         0.032890      -0.000005
                                                         0.016120       0.000001

                          4       2    2s          1224000.000000      -0.030674
                                                    183200.000000      -0.057375
                                                     41700.000000      -0.099516
                                                     11810.000000      -0.163067
                                                      3853.000000      -0.256473
                                                      1391.000000      -0.387562
                                                       542.500000      -0.564781
                                                       224.900000      -0.777548
                                                        97.930000      -0.989876
                                                        44.310000      -1.098848
                                                        20.650000      -0.986857
                                                         9.729000      -0.488073
                                                         4.228000       0.210067
                                                         1.969000       0.494099
                                                         0.889000       0.310022
                                                         0.396400       0.058131
                                                         0.069930       0.000300
                                                         0.032890      -0.000085
                                                         0.016120       0.000018

                          4       3    3s          1224000.000000       0.000000
                                                    183200.000000       0.000000
                                                     41700.000000       0.000000
                                                     11810.000000       0.000000
                                                      3853.000000       0.000000
                                                      1391.000000       0.000000
                                                       542.500000       0.000000
                                                       224.900000       0.000000
                                                        97.930000       0.000000
                                                        44.310000       0.000000
                                                        20.650000       0.000000
                                                         9.729000       0.000000
                                                         4.228000       0.000000
                                                         1.969000       0.000000
                                                         0.889000       0.000000
                                                         0.396400       0.000000
                                                         0.069930       0.096919
                                                         0.032890       0.000000
                                                         0.016120       0.000000

                          4       4    4s          1224000.000000       0.004613
                                                    183200.000000       0.008621
                                                     41700.000000       0.014970
                                                     11810.000000       0.024493
                                                      3853.000000       0.038602
                                                      1391.000000       0.058212
                                                       542.500000       0.085139
                                                       224.900000       0.117006
                                                        97.930000       0.150148
                                                        44.310000       0.167053
                                                        20.650000       0.153830
                                                         9.729000       0.076956
                                                         4.228000      -0.035242
                                                         1.969000      -0.091661
                                                         0.889000      -0.074060
                                                         0.396400      -0.049537
                                                         0.069930       0.042652
                                                         0.032890       0.029666
                                                         0.016120       0.004317

                          4       5    5s          1224000.000000       0.000000
                                                    183200.000000       0.000000
                                                     41700.000000       0.000000
                                                     11810.000000       0.000000
                                                      3853.000000       0.000000
                                                      1391.000000       0.000000
                                                       542.500000       0.000000
                                                       224.900000       0.000000
                                                        97.930000       0.000000
                                                        44.310000       0.000000
                                                        20.650000       0.000000
                                                         9.729000       0.000000
                                                         4.228000       0.000000
                                                         1.969000       0.000000
                                                         0.889000       0.000000
                                                         0.396400       0.000000
                                                         0.069930       0.000000
                                                         0.032890       0.055044
                                                         0.016120       0.000000

                          4       6    6s          1224000.000000       0.000000
                                                    183200.000000       0.000000
                                                     41700.000000       0.000000
                                                     11810.000000       0.000000
                                                      3853.000000       0.000000
                                                      1391.000000       0.000000
                                                       542.500000       0.000000
                                                       224.900000       0.000000
                                                        97.930000       0.000000
                                                        44.310000       0.000000
                                                        20.650000       0.000000
                                                         9.729000       0.000000
                                                         4.228000       0.000000
                                                         1.969000       0.000000
                                                         0.889000       0.000000
                                                         0.396400       0.000000
                                                         0.069930       0.000000
                                                         0.032890       0.000000
                                                         0.016120       0.032243

                          5       1    1dx2              0.025300       0.002642
                          5       1    1dxy              0.025300       0.004575
                          5       1    1dxz              0.025300       0.004575
                          5       1    1dy2              0.025300       0.002642
                          5       1    1dyz              0.025300       0.004575
                          5       1    1dz2              0.025300       0.002642

                          6       1    1fx3              0.044700       0.001353
                          6       1    1fx2y             0.044700       0.003024
                          6       1    1fx2z             0.044700       0.003024
                          6       1    1fxy2             0.044700       0.003024
                          6       1    1fxyz             0.044700       0.005238
                          6       1    1fxz2             0.044700       0.003024
                          6       1    1fy3              0.044700       0.001353
                          6       1    1fy2z             0.044700       0.003024
                          6       1    1fyz2             0.044700       0.003024
                          6       1    1fz3              0.044700       0.001353

                          7       1    1dx2              0.211600       0.108658
                                                         0.103900       0.000000
                                                         0.051000       0.000000
                          7       1    1dxy              0.211600       0.188201
                                                         0.103900       0.000000
                                                         0.051000       0.000000
                          7       1    1dxz              0.211600       0.188201
                                                         0.103900       0.000000
                                                         0.051000       0.000000
                          7       1    1dy2              0.211600       0.108658
                                                         0.103900       0.000000
                                                         0.051000       0.000000
                          7       1    1dyz              0.211600       0.188201
                                                         0.103900       0.000000
                                                         0.051000       0.000000
                          7       1    1dz2              0.211600       0.108658
                                                         0.103900       0.000000
                                                         0.051000       0.000000

                          7       2    2dx2              0.211600       0.000000
                                                         0.103900       0.031296
                                                         0.051000       0.000000
                          7       2    2dxy              0.211600       0.000000
                                                         0.103900       0.054206
                                                         0.051000       0.000000
                          7       2    2dxz              0.211600       0.000000
                                                         0.103900       0.054206
                                                         0.051000       0.000000
                          7       2    2dy2              0.211600       0.000000
                                                         0.103900       0.031296
                                                         0.051000       0.000000
                          7       2    2dyz              0.211600       0.000000
                                                         0.103900       0.054206
                                                         0.051000       0.000000
                          7       2    2dz2              0.211600       0.000000
                                                         0.103900       0.031296
                                                         0.051000       0.000000

                          7       3    3dx2              0.211600       0.000000
                                                         0.103900       0.000000
                                                         0.051000       0.009009
                          7       3    3dxy              0.211600       0.000000
                                                         0.103900       0.000000
                                                         0.051000       0.015603
                          7       3    3dxz              0.211600       0.000000
                                                         0.103900       0.000000
                                                         0.051000       0.015603
                          7       3    3dy2              0.211600       0.000000
                                                         0.103900       0.000000
                                                         0.051000       0.009009
                          7       3    3dyz              0.211600       0.000000
                                                         0.103900       0.000000
                                                         0.051000       0.015603
                          7       3    3dz2              0.211600       0.000000
                                                         0.103900       0.000000
                                                         0.051000       0.009009

                          8       1    1gx4              0.087200       0.001358
                          8       1    1gx3y             0.087200       0.003593
                          8       1    1gx3z             0.087200       0.003593
                          8       1    1gx2y2            0.087200       0.004638
                          8       1    1gx2yz            0.087200       0.008033
                          8       1    1gx2z2            0.087200       0.004638
                          8       1    1gxy3             0.087200       0.003593
                          8       1    1gxy2z            0.087200       0.008033
                          8       1    1gxyz2            0.087200       0.008033
                          8       1    1gxz3             0.087200       0.003593
                          8       1    1gy4              0.087200       0.001358
                          8       1    1gy3z             0.087200       0.003593
                          8       1    1gy2z2            0.087200       0.004638
                          8       1    1gyz3             0.087200       0.003593
                          8       1    1gz4              0.087200       0.001358

                          9       1    1fx3              0.200600       0.039646
                                                         0.100900       0.000000
                          9       1    1fx2y             0.200600       0.088651
                                                         0.100900       0.000000
                          9       1    1fx2z             0.200600       0.088651
                                                         0.100900       0.000000
                          9       1    1fxy2             0.200600       0.088651
                                                         0.100900       0.000000
                          9       1    1fxyz             0.200600       0.153548
                                                         0.100900       0.000000
                          9       1    1fxz2             0.200600       0.088651
                                                         0.100900       0.000000
                          9       1    1fy3              0.200600       0.039646
                                                         0.100900       0.000000
                          9       1    1fy2z             0.200600       0.088651
                                                         0.100900       0.000000
                          9       1    1fyz2             0.200600       0.088651
                                                         0.100900       0.000000
                          9       1    1fz3              0.200600       0.039646
                                                         0.100900       0.000000

                          9       2    2fx3              0.200600       0.000000
                                                         0.100900       0.008447
                          9       2    2fx2y             0.200600       0.000000
                                                         0.100900       0.018888
                          9       2    2fx2z             0.200600       0.000000
                                                         0.100900       0.018888
                          9       2    2fxy2             0.200600       0.000000
                                                         0.100900       0.018888
                          9       2    2fxyz             0.200600       0.000000
                                                         0.100900       0.032716
                          9       2    2fxz2             0.200600       0.000000
                                                         0.100900       0.018888
                          9       2    2fy3              0.200600       0.000000
                                                         0.100900       0.008447
                          9       2    2fy2z             0.200600       0.000000
                                                         0.100900       0.018888
                          9       2    2fyz2             0.200600       0.000000
                                                         0.100900       0.018888
                          9       2    2fz3              0.200600       0.000000
                                                         0.100900       0.008447

                         10       1    1gx4              0.177600       0.009603
                         10       1    1gx3y             0.177600       0.025407
                         10       1    1gx3z             0.177600       0.025407
                         10       1    1gx2y2            0.177600       0.032800
                         10       1    1gx2yz            0.177600       0.056812
                         10       1    1gx2z2            0.177600       0.032800
                         10       1    1gxy3             0.177600       0.025407
                         10       1    1gxy2z            0.177600       0.056812
                         10       1    1gxyz2            0.177600       0.056812
                         10       1    1gxz3             0.177600       0.025407
                         10       1    1gy4              0.177600       0.009603
                         10       1    1gy3z             0.177600       0.025407
                         10       1    1gy2z2            0.177600       0.032800
                         10       1    1gyz3             0.177600       0.025407
                         10       1    1gz4              0.177600       0.009603

     RI Auxiliary Basis Set             RI_aug-TZVP-MOLOPT-ae_N_RI_117_s_p_d_f_g

       Number of orbital shell sets:                                          27
       Number of orbital shells:                                              27
       Number of primitive Cartesian functions:                               27
       Number of Cartesian basis functions:                                  156
       Number of spherical basis functions:                                  117
       Norm type:                                                              2

       Normalised Cartesian orbitals:

                        Set   Shell   Orbital            Exponent    Coefficient

                          1       1   25gx4              0.091464       0.001548
                          1       1   25gx3y             0.091464       0.004097
                          1       1   25gx3z             0.091464       0.004097
                          1       1   25gx2y2            0.091464       0.005289
                          1       1   25gx2yz            0.091464       0.009160
                          1       1   25gx2z2            0.091464       0.005289
                          1       1   25gxy3             0.091464       0.004097
                          1       1   25gxy2z            0.091464       0.009160
                          1       1   25gxyz2            0.091464       0.009160
                          1       1   25gxz3             0.091464       0.004097
                          1       1   25gy4              0.091464       0.001548
                          1       1   25gy3z             0.091464       0.004097
                          1       1   25gy2z2            0.091464       0.005289
                          1       1   25gyz3             0.091464       0.004097
                          1       1   25gz4              0.091464       0.001548

                          2       1   20fx3              0.105255       0.009290
                          2       1   20fx2y             0.105255       0.020772
                          2       1   20fx2z             0.105255       0.020772
                          2       1   20fxy2             0.105255       0.020772
                          2       1   20fxyz             0.105255       0.035979
                          2       1   20fxz2             0.105255       0.020772
                          2       1   20fy3              0.105255       0.009290
                          2       1   20fy2z             0.105255       0.020772
                          2       1   20fyz2             0.105255       0.020772
                          2       1   20fz3              0.105255       0.009290

                          3       1   14dx2              0.124232       0.042788
                          3       1   14dxy              0.124232       0.074111
                          3       1   14dxz              0.124232       0.074111
                          3       1   14dy2              0.124232       0.042788
                          3       1   14dyz              0.124232       0.074111
                          3       1   14dz2              0.124232       0.042788

                          4       1    8px               0.130248       0.111534
                          4       1    8py               0.130248       0.111534
                          4       1    8pz               0.130248       0.111534

                          5       1    1s                0.132720       0.156715

                          6       1   21fx3              0.279596       0.083685
                          6       1   21fx2y             0.279596       0.187126
                          6       1   21fx2z             0.279596       0.187126
                          6       1   21fxy2             0.279596       0.187126
                          6       1   21fxyz             0.279596       0.324111
                          6       1   21fxz2             0.279596       0.187126
                          6       1   21fy3              0.279596       0.083685
                          6       1   21fy2z             0.279596       0.187126
                          6       1   21fyz2             0.279596       0.187126
                          6       1   21fz3              0.279596       0.083685

                          7       1   15dx2              0.334606       0.242294
                          7       1   15dxy              0.334606       0.419666
                          7       1   15dxz              0.334606       0.419666
                          7       1   15dy2              0.334606       0.242294
                          7       1   15dyz              0.334606       0.419666
                          7       1   15dz2              0.334606       0.242294

                          8       1    2s                0.426827       0.376356

                          9       1    9px               0.447525       0.521749
                          9       1    9py               0.447525       0.521749
                          9       1    9pz               0.447525       0.521749

                         10       1   26gx4              0.640379       0.326692
                         10       1   26gx3y             0.640379       0.864345
                         10       1   26gx3z             0.640379       0.864345
                         10       1   26gx2y2            0.640379       1.115864
                         10       1   26gx2yz            0.640379       1.932734
                         10       1   26gx2z2            0.640379       1.115864
                         10       1   26gxy3             0.640379       0.864345
                         10       1   26gxy2z            0.640379       1.932734
                         10       1   26gxyz2            0.640379       1.932734
                         10       1   26gxz3             0.640379       0.864345
                         10       1   26gy4              0.640379       0.326692
                         10       1   26gy3z             0.640379       0.864345
                         10       1   26gy2z2            0.640379       1.115864
                         10       1   26gyz3             0.640379       0.864345
                         10       1   26gz4              0.640379       0.326692

                         11       1   22fx3              0.758008       0.789260
                         11       1   22fx2y             0.758008       1.764839
                         11       1   22fx2z             0.758008       1.764839
                         11       1   22fxy2             0.758008       1.764839
                         11       1   22fxyz             0.758008       3.056790
                         11       1   22fxz2             0.758008       1.764839
                         11       1   22fy3              0.758008       0.789260
                         11       1   22fy2z             0.758008       1.764839
                         11       1   22fyz2             0.758008       1.764839
                         11       1   22fz3              0.758008       0.789260

                         12       1   16dx2              0.923049       1.430713
                         12       1   16dxy              0.923049       2.478068
                         12       1   16dxz              0.923049       2.478068
                         12       1   16dy2              0.923049       1.430713
                         12       1   16dyz              0.923049       2.478068
                         12       1   16dz2              0.923049       1.430713

                         13       1   10px               1.299500       1.977700
                         13       1   10py               1.299500       1.977700
                         13       1   10pz               1.299500       1.977700

                         14       1    3s                1.463142       0.948146

                         15       1   23fx3              1.899207       6.233644
                         15       1   23fx2y             1.899207      13.938851
                         15       1   23fx2z             1.899207      13.938851
                         15       1   23fxy2             1.899207      13.938851
                         15       1   23fxyz             1.899207      24.142798
                         15       1   23fxz2             1.899207      13.938851
                         15       1   23fy3              1.899207       6.233644
                         15       1   23fy2z             1.899207      13.938851
                         15       1   23fyz2             1.899207      13.938851
                         15       1   23fz3              1.899207       6.233644

                         16       1    4s                2.310451       1.335619

                         17       1   17dx2              2.526698       8.334467
                         17       1   17dxy              2.526698      14.435720
                         17       1   17dxz              2.526698      14.435720
                         17       1   17dy2              2.526698       8.334467
                         17       1   17dyz              2.526698      14.435720
                         17       1   17dz2              2.526698       8.334467

                         18       1   11px               2.654630       4.829977
                         18       1   11py               2.654630       4.829977
                         18       1   11pz               2.654630       4.829977

                         19       1   27gx4              2.818117      19.223069
                         19       1   27gx3y             2.818117      50.859459
                         19       1   27gx3z             2.818117      50.859459
                         19       1   27gx2y2            2.818117      65.659279
                         19       1   27gx2yz            2.818117     113.725207
                         19       1   27gx2z2            2.818117      65.659279
                         19       1   27gxy3             2.818117      50.859459
                         19       1   27gxy2z            2.818117     113.725207
                         19       1   27gxyz2            2.818117     113.725207
                         19       1   27gxz3             2.818117      50.859459
                         19       1   27gy4              2.818117      19.223069
                         19       1   27gy3z             2.818117      50.859459
                         19       1   27gy2z2            2.818117      65.659279
                         19       1   27gyz3             2.818117      50.859459
                         19       1   27gz4              2.818117      19.223069

                         20       1   24fx3              4.457002      42.491372
                         20       1   24fx2y             4.457002      95.013596
                         20       1   24fx2z             4.457002      95.013596
                         20       1   24fxy2             4.457002      95.013596
                         20       1   24fxyz             4.457002     164.568376
                         20       1   24fxz2             4.457002      95.013596
                         20       1   24fy3              4.457002      42.491372
                         20       1   24fy2z             4.457002      95.013596
                         20       1   24fyz2             4.457002      95.013596
                         20       1   24fz3              4.457002      42.491372

                         21       1   18dx2              5.578452      33.327938
                         21       1   18dxy              5.578452      57.725682
                         21       1   18dxz              5.578452      57.725682
                         21       1   18dy2              5.578452      33.327938
                         21       1   18dyz              5.578452      57.725682
                         21       1   18dz2              5.578452      33.327938

                         22       1    5s                5.637849       2.607625

                         23       1   12px               8.384528      20.337069
                         23       1   12py               8.384528      20.337069
                         23       1   12pz               8.384528      20.337069

                         24       1   19dx2             15.040507     189.068339
                         24       1   19dxy             15.040507     327.475969
                         24       1   19dxz             15.040507     327.475969
                         24       1   19dy2             15.040507     189.068339
                         24       1   19dyz             15.040507     327.475969
                         24       1   19dz2             15.040507     189.068339

                         25       1    6s               20.013825       6.743846

                         26       1   13px              20.518934      62.249171
                         26       1   13py              20.518934      62.249171
                         26       1   13pz              20.518934      62.249171

                         27       1    7s               83.775135      19.735423

       Atomic covalent radius [Angstrom]:                                  1.540

       Atomic van der Waals radius [Angstrom]:                             2.270

     The atoms of this atomic kind are PAW atoms (GAPW):
       Hard Gaussian function radius:                                      1.512
       Rho0 radius:                                                        1.512
       Maximum GTO radius used for PAW projector construction:            24.566

     GAPW Soft Basis Set                                        aug-cc-pVQZ_soft

       Number of orbital shell sets:                                          10
       Number of orbital shells:                                              22
       Number of primitive Cartesian functions:                               24
       Number of Cartesian basis functions:                                  109
       Number of spherical basis functions:                                   84
       Norm type:                                                              2

       Normalised Cartesian orbitals:

                        Set   Shell   Orbital            Exponent    Coefficient

                          1       1    1s                0.005000       0.013401

                          2       1    1px               0.007200       0.002990
                          2       1    1py               0.007200       0.002990
                          2       1    1pz               0.007200       0.002990

                          3       1    1px               1.918000       1.217436
                                                         0.777500       0.348244
                                                         0.301300       0.040361
                                                         0.227500      -0.003295
                                                         0.075270       0.000320
                                                         0.031260      -0.000032
                                                         0.013420       0.000004
                          3       1    1py               1.918000       1.217436
                                                         0.777500       0.348244
                                                         0.301300       0.040361
                                                         0.227500      -0.003295
                                                         0.075270       0.000320
                                                         0.031260      -0.000032
                                                         0.013420       0.000004
                          3       1    1pz               1.918000       1.217436
                                                         0.777500       0.348244
                                                         0.301300       0.040361
                                                         0.227500      -0.003295
                                                         0.075270       0.000320
                                                         0.031260      -0.000032
                                                         0.013420       0.000004

                          3       2    2px               1.918000       0.000000
                                                         0.777500       0.000000
                                                         0.301300       0.000000
                                                         0.227500       0.000000
                                                         0.075270       0.056198
                                                         0.031260       0.000000
                                                         0.013420       0.000000
                          3       2    2py               1.918000       0.000000
                                                         0.777500       0.000000
                                                         0.301300       0.000000
                                                         0.227500       0.000000
                                                         0.075270       0.056198
                                                         0.031260       0.000000
                                                         0.013420       0.000000
                          3       2    2pz               1.918000       0.000000
                                                         0.777500       0.000000
                                                         0.301300       0.000000
                                                         0.227500       0.000000
                                                         0.075270       0.056198
                                                         0.031260       0.000000
                                                         0.013420       0.000000

                          3       3    3px               1.918000       0.000000
                                                         0.777500       0.000000
                                                         0.301300       0.000000
                                                         0.227500       0.000000
                                                         0.075270       0.000000
                                                         0.031260       0.018736
                                                         0.013420       0.000000
                          3       3    3py               1.918000       0.000000
                                                         0.777500       0.000000
                                                         0.301300       0.000000
                                                         0.227500       0.000000
                                                         0.075270       0.000000
                                                         0.031260       0.018736
                                                         0.013420       0.000000
                          3       3    3pz               1.918000       0.000000
                                                         0.777500       0.000000
                                                         0.301300       0.000000
                                                         0.227500       0.000000
                                                         0.075270       0.000000
                                                         0.031260       0.018736
                                                         0.013420       0.000000

                          3       4    4px               1.918000      -0.126363
                                                         0.777500      -0.039138
                                                         0.301300      -0.013785
                                                         0.227500       0.011601
                                                         0.075270       0.014622
                                                         0.031260       0.010299
                                                         0.013420       0.001835
                          3       4    4py               1.918000      -0.126363
                                                         0.777500      -0.039138
                                                         0.301300      -0.013785
                                                         0.227500       0.011601
                                                         0.075270       0.014622
                                                         0.031260       0.010299
                                                         0.013420       0.001835
                          3       4    4pz               1.918000      -0.126363
                                                         0.777500      -0.039138
                                                         0.301300      -0.013785
                                                         0.227500       0.011601
                                                         0.075270       0.014622
                                                         0.031260       0.010299
                                                         0.013420       0.001835

                          3       5    5px               1.918000       0.000000
                                                         0.777500       0.000000
                                                         0.301300       0.000000
                                                         0.227500       0.000000
                                                         0.075270       0.000000
                                                         0.031260       0.000000
                                                         0.013420       0.006511
                          3       5    5py               1.918000       0.000000
                                                         0.777500       0.000000
                                                         0.301300       0.000000
                                                         0.227500       0.000000
                                                         0.075270       0.000000
                                                         0.031260       0.000000
                                                         0.013420       0.006511
                          3       5    5pz               1.918000       0.000000
                                                         0.777500       0.000000
                                                         0.301300       0.000000
                                                         0.227500       0.000000
                                                         0.075270       0.000000
                                                         0.031260       0.000000
                                                         0.013420       0.006511

                          4       1    1s                1.969000      -0.000767
                                                         0.889000       0.000952
                                                         0.396400      -0.000064
                                                         0.069930       0.000009
                                                         0.032890      -0.000005
                                                         0.016120       0.000001

                          4       2    2s                1.969000       0.494099
                                                         0.889000       0.310022
                                                         0.396400       0.058131
                                                         0.069930       0.000300
                                                         0.032890      -0.000085
                                                         0.016120       0.000018

                          4       3    3s                1.969000       0.000000
                                                         0.889000       0.000000
                                                         0.396400       0.000000
                                                         0.069930       0.096919
                                                         0.032890       0.000000
                                                         0.016120       0.000000

                          4       4    4s                1.969000      -0.091661
                                                         0.889000      -0.074060
                                                         0.396400      -0.049537
                                                         0.069930       0.042652
                                                         0.032890       0.029666
                                                         0.016120       0.004317

                          4       5    5s                1.969000       0.000000
                                                         0.889000       0.000000
                                                         0.396400       0.000000
                                                         0.069930       0.000000
                                                         0.032890       0.055044
                                                         0.016120       0.000000

                          4       6    6s                1.969000       0.000000
                                                         0.889000       0.000000
                                                         0.396400       0.000000
                                                         0.069930       0.000000
                                                         0.032890       0.000000
                                                         0.016120       0.032243

                          5       1    1dx2              0.025300       0.002642
                          5       1    1dxy              0.025300       0.004575
                          5       1    1dxz              0.025300       0.004575
                          5       1    1dy2              0.025300       0.002642
                          5       1    1dyz              0.025300       0.004575
                          5       1    1dz2              0.025300       0.002642

                          6       1    1fx3              0.044700       0.001353
                          6       1    1fx2y             0.044700       0.003024
                          6       1    1fx2z             0.044700       0.003024
                          6       1    1fxy2             0.044700       0.003024
                          6       1    1fxyz             0.044700       0.005238
                          6       1    1fxz2             0.044700       0.003024
                          6       1    1fy3              0.044700       0.001353
                          6       1    1fy2z             0.044700       0.003024
                          6       1    1fyz2             0.044700       0.003024
                          6       1    1fz3              0.044700       0.001353

                          7       1    1dx2              0.211600       0.108658
                                                         0.103900       0.000000
                                                         0.051000       0.000000
                          7       1    1dxy              0.211600       0.188201
                                                         0.103900       0.000000
                                                         0.051000       0.000000
                          7       1    1dxz              0.211600       0.188201
                                                         0.103900       0.000000
                                                         0.051000       0.000000
                          7       1    1dy2              0.211600       0.108658
                                                         0.103900       0.000000
[...]
 CHIMIA 59, 499-503 (2005).
 Ground and excited state density functional calculations with the Gaussian and 
 augmented-plane-wave method.
 https://doi.org/10.2533/000942905777676164

 M. Frigo, S. G. Johnson.
 Proc. IEEE 93, 216-231 (2005).
 The design and implementation of FFTW3.
 https://doi.org/10.1109/JPROC.2004.840301

 R. L. Martin.
 J. Chem. Phys. 118, 4775-4777 (2003).
 Natural transition orbitals.
 https://doi.org/10.1063/1.1558471

 M. Krack, M. Parrinello.
 Phys. Chem. Chem. Phys. 2, 2105-2112 (2000).
 All-electron ab-initio molecular dynamics.
 https://doi.org/10.1039/b001167n

 G. Lippert, J. Hutter, M. Parrinello.
 Theor. Chem. Acc. 103, 124-140 (1999).
 The Gaussian and augmented-plane-wave density functional method for ab initio 
 molecular dynamics simulations.
 https://doi.org/10.1007/s002140050523

 J. P. Perdew, K. Burke, M. Ernzerhof.
 Phys. Rev. Lett. 77, 3865-3868 (1996).
 Generalized gradient approximation made simple.
 https://doi.org/10.1103/PhysRevLett.77.3865


 -------------------------------------------------------------------------------
 -                                                                             -
 -                                T I M I N G                                  -
 -                                                                             -
 -------------------------------------------------------------------------------
 SUBROUTINE                       CALLS  ASD         SELF TIME        TOTAL TIME
                                MAXIMUM       AVERAGE  MAXIMUM  AVERAGE  MAXIMUM
 CP2K                                 1  1.0    0.040    0.054  723.196  723.196
 qs_energies                          1  2.0    0.000    0.001  722.146  722.146
 qs_energies_properties               1  3.0    0.000    0.000  393.573  393.573
 tddfpt                               1  4.0    0.000    0.001  393.573  393.573
 tddfpt_energies                      1  5.0    0.000    0.001  393.499  393.499
 tddfpt_davidson_solver               1  6.0    0.001    0.003  391.370  391.370
 tddfpt_compute_Aop_evects            9  7.0    0.000    0.000  389.242  389.243
 scf_env_do_scf                       1  3.0    0.000    0.000  327.269  327.274
 scf_env_do_scf_inner_loop           91  4.0    0.002    0.006  327.268  327.273
 fhxc_kernel                          9  8.0    0.009    0.010  291.616  291.617
 qs_ks_update_qs_env                 91  5.0    0.001    0.001  283.964  284.034
 rebuild_ks_matrix                   91  6.0    0.000    0.000  283.950  284.020
 qs_ks_build_kohn_sham_matrix        91  7.0    0.014    0.015  283.950  284.020
 integrate_four_center              451  9.8    9.676   20.145  251.984  252.147
 mp_sync                           2405 11.4  208.430  228.412  208.430  228.412
 integrate_four_center_main         451 10.8    1.800  116.988   10.632  222.678
 integrate_four_center_bin        42229 11.8    8.833  216.346    8.833  216.346
 fft_wrap_pw1pw2                   5525 11.0    0.112    0.154  184.638  188.992
 fft_wrap_pw1pw2_250               3893 12.1    6.747    8.642  178.323  181.794
 fft3d_ps                          5525 13.0   60.112   75.431  155.634  160.218
 hfx_ks_matrix                       91  8.0    0.004    0.004  157.593  157.681
 pw_poisson_solve                   271  9.3    3.172    4.476  142.776  143.447
 tddfpt_apply_coulomb               180  9.0    0.004    0.005  120.288  121.288
 tddfpt_apply_hfx                     9  8.0    0.003    0.004   96.726   96.726
 tddft_hfx_matrix                   360  9.0    0.009    0.012   94.405   94.540
 mp_alltoall_z22v                  5525 15.0   83.631   89.855   83.631   89.855
 ps_wavelet_solve                   271 10.3   60.634   69.798   77.357   78.463
 xc_pw_derive                      1629 11.0    0.018    0.024   73.909   74.694
 qs_rho_update_rho_low              273  7.6    0.003    0.004   71.327   71.333
 calculate_rho_elec                 273  8.6    1.328    1.576   70.171   70.177
 tddfpt_apply_xc_analytic           180  9.0    0.256    0.347   60.476   61.331
 mp_alltoall_d54                    271 11.3    9.864   59.575    9.864   59.575
 x_to_yz                           2534 13.7    7.009    8.230   54.362   56.709
 xc_pw_divergence                   271 10.7    0.011    0.013   50.122   50.928
 density_rs2pw                      273  9.6    0.017    0.022   46.472   50.868
 integrate_v_rspace                 271  9.0    0.006    0.008   48.399   48.703
 yz_to_x                           2447 14.3    4.262    5.045   40.498   44.390
 prepare_gapw_den                   272  8.7    0.005    0.006   42.965   43.305
 potential_pw2rs                    271 10.0    0.093    0.103   38.920   39.234
 xc_calc_2nd_deriv_analytical       900 10.1    2.148    2.245   35.810   35.940
 qs_vxc_create                       91  8.0    0.001    0.001   34.441   34.441
 xc_vxc_pw_create                    91  9.0    0.555    0.662   34.440   34.440
 transfer_rs2pw                    1365 10.6    0.037    0.061   28.604   32.491
 transfer_pw2rs                    1356 10.9    0.021    0.025   31.666   32.121
 mp_alltoall_d11v                 16248 11.6   19.516   28.690   19.516   28.690
 gaVxcgb_GC                         542  9.7    0.532   25.563    0.532   25.563
 grid_collocate_task_list           273  9.6   20.809   25.121   20.809   25.121
 mp_waitany                       48990 12.7   22.114   24.376   22.114   24.376
 put_rho0_on_grid                   272  9.7    1.341    1.613   22.719   23.060
 transfer_rs2pw_250                 546 11.6    6.694    7.575   16.969   21.333
 calculate_xc_2nd_deriv_atom        180  9.0    0.076    2.581    0.453   19.915
 transfer_pw2rs_250                 543 11.7    6.255    7.609   17.796   18.940
 xc_rho_set_and_dset_create          92 10.0    0.398    0.480   16.168   17.548
 calculate_rho_atom                 544  9.7    4.919   17.430    4.919   17.431
 mp_waitall_1                    295294 13.4   12.727   16.922   12.727   16.922
 gspace_mixing                       90  5.0    0.437    0.519   16.499   16.500
 integrate_vhg0_rspace              271  9.3    1.245    1.549   15.780   16.340
 mp_sum_d                          6521  7.6   14.598   16.128   14.598   16.128
 sum_up_and_integrate                91  8.0    0.001    0.002   15.749   15.868
 mp_sum_dv                        24583  8.9   12.536   13.168   12.536   13.168
 broyden_mixing                      90  6.0   11.995   12.342   12.252   12.415
 calc_screening_functions             1 10.0    9.371    9.973   10.953   11.561
 mp_alltoall_d45                    272 11.3    6.277   11.371    6.277   11.371
 rs_gather_matrices                 271 10.0    0.025    0.167    6.662    9.513
 calculate_vxc_atom                  91  8.0    0.038    0.658    9.474    9.475
 pw_scatter_p                      2805 12.7    9.158    9.446    9.158    9.446
 pw_gather_p                       2720 13.3    8.127    9.216    8.127    9.216
 grid_integrate_task_list           271 10.0    2.810    9.151    2.810    9.151
 transfer_pw2rs_30                  271 12.0    4.633    5.221    7.731    8.218
 pw_derive                         2442 11.8    7.211    7.711    7.211    7.711
 mp_isendrecv_dv                 137180 12.2    2.598    6.856    2.598    6.856
 cp2k_distribution_to_z_slices      271 10.3    2.605    2.833    6.039    6.401
 transfer_rs2pw_30                  273 11.6    2.590    2.714    6.029    6.101
 fft_wrap_pw1pw2_90                 544 11.8    0.182    0.250    4.766    6.080
 integrate_four_center_getP         451 10.8    0.100    0.132    5.573    5.636
 cp_dbcsr_sm_fm_multiply           1126  8.6    0.022    0.024    5.354    5.469
 transfer_rs2pw_90                  273 11.6    1.061    1.213    4.342    5.442
 transfer_pw2rs_90                  271 12.0    1.146    1.360    4.768    5.359
 integrate_four_center_dist_KS      451 10.8    0.116    0.129    5.292    5.317
 rs_grid_zero                      1358 11.9    5.003    5.304    5.003    5.304
 mp_sum_dm                         3392  9.8    4.597    5.095    4.597    5.095
 pw_copy                           3710 10.9    4.196    4.498    4.196    4.498
 xc_functional_eval                1176 10.9    0.001    0.006    3.388    4.487
 pbe_lda_eval                      1176 11.9    3.387    4.487    3.387    4.487
 mp_sendrecv_dv                   51870 12.6    4.190    4.309    4.190    4.309
 pw_poisson_set                     272 10.3    0.009    0.011    4.194    4.251
 pw_copy_to_array                  2720 13.3    2.824    3.626    2.824    3.626
 calculate_rho0_atom                544  9.7    3.196    3.414    3.196    3.414
 dbcsr_complete_redistribute       3812 10.4    0.156    0.324    3.063    3.181
 pw_axpy                           2898 10.7    2.850    3.122    2.850    3.122
 dbcsr_multiply_generic            1577 10.3    0.067    0.073    2.612    3.098
 qs_scf_new_mos                      91  5.0    0.001    0.001    2.989    3.010
 cp_fm_syevd                        143  7.2    0.001    0.001    2.960    2.967
 cp_fm_redistribute_end             143  8.2    1.454    2.824    1.460    2.829
 powell_optimize                1061146 11.0    2.609    2.796    2.609    2.796
 cp_fm_syevd_base                   143  8.2    1.364    2.734    1.364    2.734
 pw_integral_ab_c1d_c1d_gs          271 10.3    1.984    2.007    2.369    2.706
 copy_dbcsr_to_fm                  1241  9.3    0.016    0.017    2.484    2.644
 Vh_1c_gg_integrals                 271  9.3    0.084    2.504    2.344    2.617
 eigensolver_symm                    91  6.0    0.003    0.003    2.346    2.350
 pw_copy_from_array                2805 12.7    1.811    2.265    1.811    2.265
 cp_dbcsr_sm_fm_multiply_core      1126  9.6    0.003    0.003    1.793    2.261
 pw_zero                           2892 10.6    1.949    2.116    1.949    2.116
 copy_fm_to_dbcsr                  2569  9.5    0.011    0.012    1.972    2.087
 mp_irecv_dm3                      9798 12.7    0.971    2.013    0.971    2.013
 multiply_cannon                   1577 11.3    0.150    0.156    1.509    1.999
 mp_isend_dm3                      9798 12.7    0.827    1.846    0.827    1.846
 mp_isend_dv                     110157 13.7    1.098    1.679    1.098    1.679
 calc_pair_dist_radii                 1 10.0    0.553    0.558    1.581    1.628
 multiply_cannon_loop              1577 12.3    0.241    0.251    1.066    1.543
 transfer_pw2rs_10                  271 12.0    0.496    0.556    1.352    1.454
 dbcsr_desymmetrize_deep           1242 10.3    0.023    0.033    1.230    1.391
 mp_alltoall_i22                   5054 11.4    1.096    1.379    1.096    1.379
 tddfpt_print_nto_analysis            1  6.0    0.002    0.003    1.321    1.321
 tddfpt_orthonormalize_psi1_psi      10  6.9    0.023    0.025    1.265    1.265
 transfer_rs2pw_10                  273 11.6    0.476    0.516    1.227    1.258
 cp_dbcsr_plus_fm_fm_t              271  8.3    0.004    0.004    1.199    1.231
 fft_wrap_pw1pw2_30                 544 11.8    0.034    0.041    1.034    1.209
 calculate_rho_atom_coeff           273  8.6    0.090    0.330    1.152    1.156
 mp_alltoall_i11v                 12678 11.4    1.132    1.134    1.132    1.134
 mp_max_i                           742  5.2    0.823    1.090    0.823    1.090
 mp_sum_l                          6065 10.5    0.782    1.008    0.782    1.008
 cp_fm_geeig                         20  7.0    0.001    0.001    0.911    0.912
 tddfpt_apply_energy_diff             9  8.0    0.001    0.001    0.900    0.900
 integrate_four_center_load         451 10.8    0.001    0.002    0.629    0.861
 hfx_load_balance                     1 11.0    0.000    0.000    0.628    0.860
 make_m2s                          3154 11.3    0.051    0.058    0.727    0.855
 offload_free_buffer                279 10.1    0.280    0.851    0.280    0.851
 hfx_load_balance_range               1 12.0    0.000    0.001    0.618    0.850
 update_ks_atom                     271  8.7    0.059    0.273    0.662    0.838
 qs_energies_init_hamiltonians        1  3.0    0.000    0.000    0.803    0.803
 multiply_cannon_metrocomm3       37848 13.3    0.060    0.061    0.236    0.802
 pw_poisson_rebuild                 271 10.3    0.000    0.001    0.786    0.799
 ps_wavelet_create                    1 10.0    0.000    0.000    0.785    0.799
 RS_z_slice_distribution              1 11.0    0.680    0.739    0.785    0.799
 build_core_hamiltonian_matrix        1  4.0    0.000    0.000    0.794    0.794
 overlap_condnum                      1  5.0    0.000    0.000    0.789    0.792
 scale_and_distribute               542 11.3    0.687    0.774    0.687    0.774
 prepare_dr1dr                      900 11.1    0.644    0.757    0.644    0.757
 tddfpt_compute_residual_vects        8  7.0    0.001    0.001    0.752    0.753
 arnoldi_conjugate_gradient           5  6.0    0.017    0.020    0.729    0.729
 mp_bcast_dm                       2168  9.7    0.602    0.696    0.602    0.696
 parallel_gemm_fm                  1676  8.2    0.002    0.002    0.632    0.661
 make_images                       3154 12.3    0.128    0.162    0.565    0.660
 parallel_gemm_fm_gemm             1676  9.2    0.002    0.002    0.630    0.658
 cp_fm_gemm                        1676 10.2    0.628    0.656    0.628    0.656
 create_qs_kind_set                   1  2.0    0.000    0.000    0.618    0.619
 read_qs_kind                         2  3.0    0.337    0.344    0.618    0.618
 rs_scatter_matrices                273  9.6    0.003    0.036    0.526    0.535
 multiply_cannon_metrocomm1       37848 13.3    0.042    0.045    0.157    0.501
 dbcsr_sym_matrix_vector_mult      2480  7.0    0.039    0.042    0.335    0.478
 hybrid_alltoall_any               4396 13.4    0.034    0.100    0.368    0.433
 fft_wrap_pw1pw2_10                 544 11.8    0.009    0.009    0.403    0.431
 tddfpt_construct_ground_state_       1  6.0    0.000    0.000    0.419    0.420
 init_scf_run                         1  3.0    0.000    0.000    0.414    0.415
 calculate_dm_sparse                 91  6.0    0.001    0.001    0.370    0.398
 scf_env_initial_rho_setup            1  4.0    0.000    0.000    0.382    0.382
 dbcsr_finalize                   11836 11.4    0.044    0.088    0.206    0.370
 mp_rank_compare                   5525 14.0    0.324    0.347    0.324    0.347
 xc_2nd_deriv_of_r                  720 10.0    0.001    0.060    0.007    0.345
 qs_init_subsys                       1  2.0    0.006    0.008    0.339    0.339
 cp_fm_trace_a1b1t1_aa            16500  8.0    0.078    0.084    0.337    0.339
 qs_env_setup                         1  3.0    0.000    0.000    0.299    0.304
 qs_env_rebuild_pw_env                2  3.5    0.000    0.000    0.297    0.303
 pw_env_rebuild                       1  5.0    0.001    0.001    0.297    0.302
 pw_scale                           724  9.5    0.260    0.296    0.260    0.296
 parser_read_line                 70774  4.0    0.024    0.026    0.280    0.286
 mp_irecv_dv                     109797 13.7    0.128    0.263    0.128    0.263
 mp_alltoall_z11v                   544 14.8    0.235    0.262    0.235    0.262
 parser_read_line_low                80  5.0    0.027    0.114    0.256    0.262
 create_kernel_env                    1  6.0    0.000    0.000    0.221    0.257
 xc_prep_2nd_deriv                    1  7.0    0.000    0.000    0.221    0.257
 broadcast_input_information         80  6.0    0.062    0.067    0.229    0.235
 multiply_cannon_metrocomm4       34694 13.3    0.102    0.107    0.196    0.234
 pw_grid_setup                        4  6.0    0.000    0.000    0.227    0.232
 pw_grid_setup_internal               4  7.0    0.006    0.008    0.227    0.232
 mp_cart_create                    1788 10.8    0.214    0.227    0.216    0.229
 dbcsr_add_d                       3794  7.0    0.003    0.004    0.032    0.225
 make_images_sizes                 3154 13.3    0.003    0.004    0.207    0.222
 dbcsr_add_anytype                 3794  8.0    0.004    0.031    0.028    0.221
 mp_alltoall_i44                   3154 14.3    0.203    0.219    0.203    0.219
 mp_cart_sub                       2485 11.3    0.214    0.216    0.214    0.216
 mp_allgather_i34                  1577 12.3    0.191    0.213    0.191    0.213
 dbcsr_merge_all                   9639 12.4    0.090    0.145    0.119    0.212
 dbcsr_create_new                 42966 11.3    0.140    0.147    0.182    0.190
 multiply_cannon_metrocomm2       33117 13.3    0.099    0.103    0.177    0.186
 dbcsr_rep_row_to_rep_col_vec      2480  8.0    0.012    0.018    0.071    0.185
 rs_grid_create                     277 10.2    0.002    0.002    0.015    0.181
 offload_create_buffer              279 11.2    0.014    0.179    0.014    0.179
 yz_to_xz                           271 14.0    0.015    0.016    0.149    0.173
 make_images_data                  3154 13.3    0.032    0.043    0.075    0.170
 multiply_cannon_multrec          37848 13.3    0.052    0.160    0.059    0.169
 cp_fm_cholesky_decompose            21  8.0    0.166    0.166    0.166    0.166
 pw_grid_sort                         4  8.0    0.106    0.109    0.155    0.159
 dbcsr_col_vec_to_rep_row          2480  8.0    0.017    0.024    0.081    0.156
 cp_fm_redistribute_start           143  8.2    0.106    0.108    0.135    0.146
 cp_fm_triangular_invert             20  8.0    0.144    0.144    0.144    0.144
 dbcsr_special_finalize            7885 13.3    0.030    0.032    0.086    0.136
 tddfpt_orthogonalize_psi1_psi0      10  6.9    0.000    0.001    0.099    0.131
 xz_to_yz                           273 13.6    0.010    0.012    0.112    0.119
 vxc_of_r_new                       364  9.0    0.000    0.018    0.002    0.115
 dbcsr_iterator_start             56085 10.5    0.071    0.093    0.086    0.114
 tddfpt_compute_ritz_vects            9  7.0    0.007    0.008    0.112    0.112
 mp_bcast_i_src                     320  7.0    0.096    0.112    0.096    0.112
 dbcsr_copy                       14008  8.5    0.046    0.053    0.089    0.105
 mp_bcast_dv                       2623  9.0    0.037    0.105    0.037    0.105
 dbcsr_sym_matrix_vector_mult_l    2480  8.0    0.012    0.093    0.019    0.100
 dbcsr_merge_single_wm             7885 14.3    0.038    0.047    0.046    0.094
 copy_fm_to_dbcsr_bc               2569 10.5    0.027    0.031    0.082    0.088
 scf_post_calculation_gpw             1  3.0    0.000    0.000    0.086    0.087
 write_available_results              1  4.0    0.000    0.000    0.086    0.087
 write_mo_free_results                1  5.0    0.007    0.008    0.086    0.086
 cp_fm_triangular_multiply           60  8.0    0.086    0.086    0.086    0.086
 mp_bcast_am_src                     80  7.0    0.063    0.070    0.069    0.084
 mixing_init                          1  5.0    0.078    0.082    0.082    0.083
 dbcsr_work_create                18766 12.4    0.036    0.049    0.055    0.080
 cp_fm_symm                          91  7.0    0.073    0.077    0.073    0.077
 dbcsr_destroy                    37919 10.8    0.048    0.050    0.071    0.077
 dbcsr_iterator_stop              56085 10.5    0.050    0.062    0.061    0.075
 -------------------------------------------------------------------------------

 The number of warnings for this run is : 3
 
 -------------------------------------------------------------------------------
  **** **** ******  **  PROGRAM ENDED AT                 2025-04-12 04:00:00.752
 ***** ** ***  *** **   PROGRAM RAN ON                              i04r02c02s08
 **    ****   ******    PROGRAM RAN BY                                   di38fab
 ***** **    ** ** **   PROGRAM PROCESS ID                               2963492
  **** **  *******  **  PROGRAM STOPPED IN /hppfs/scratch/04/di38fab/05_MOL/W4-1
                                           1+ALK/na2_h2/aug-cc-pVQZ/TDDFT
